Program Version,EnergyPlus, Version 26.1.0-6f2e40d102, YMD=2026.04.15 00:29
1,5,Environment Title[],Latitude[deg],Longitude[deg],Time Zone[],Elevation[m]
2,8,Day of Simulation[],Month[],Day of Month[],DST Indicator[1=yes 0=no],Hour[],StartMinute[],EndMinute[],DayType
3,5,Cumulative Day of Simulation[],Month[],Day of Month[],DST Indicator[1=yes 0=no],DayType  ! When Daily Meters Requested
4,2,Cumulative Days of Simulation[],Month[]  ! When Monthly Meters Requested
5,1,Cumulative Days of Simulation[] ! When Run Period Meters Requested
6,1,Calendar Year of Simulation[] ! When Annual Meters Requested
213,1,Electricity:Facility [J] !Hourly
6085,1,ElectricityNet:Facility [J] !Hourly
End of Data Dictionary
1,RUNPERIOD 1,  28.11, 112.79,   8.00, 120.00
2,1, 1, 1, 0, 1, 0.00,60.00,Holiday
213,161369703.93979648
6085,161369703.93979648
2,1, 1, 1, 0, 2, 0.00,60.00,Holiday
213,154596618.42239422
6085,154596618.422394
2,1, 1, 1, 0, 3, 0.00,60.00,Holiday
213,152412865.43357775
6085,152412865.4335776
2,1, 1, 1, 0, 4, 0.00,60.00,Holiday
213,151500861.99862298
6085,151500861.99862292
2,1, 1, 1, 0, 5, 0.00,60.00,Holiday
213,154636663.0172276
6085,154636663.01722744
2,1, 1, 1, 0, 6, 0.00,60.00,Holiday
213,171061488.24457029
6085,171061488.24457008
2,1, 1, 1, 0, 7, 0.00,60.00,Holiday
213,199334202.8609955
6085,199334202.86099526
2,1, 1, 1, 0, 8, 0.00,60.00,Holiday
213,201837105.69915506
6085,201837105.69915485
2,1, 1, 1, 0, 9, 0.00,60.00,Holiday
213,188722934.30723095
6085,188722934.3072307
2,1, 1, 1, 0,10, 0.00,60.00,Holiday
213,179783690.99459815
6085,179783690.9945979
2,1, 1, 1, 0,11, 0.00,60.00,Holiday
213,168635746.30320832
6085,168635746.3032081
2,1, 1, 1, 0,12, 0.00,60.00,Holiday
213,173227854.68477982
6085,173227854.68477955
2,1, 1, 1, 0,13, 0.00,60.00,Holiday
213,173172191.07695892
6085,173172191.07695875
2,1, 1, 1, 0,14, 0.00,60.00,Holiday
213,165735513.03941718
6085,165735513.039417
2,1, 1, 1, 0,15, 0.00,60.00,Holiday
213,167694101.08964396
6085,167694101.08964375
2,1, 1, 1, 0,16, 0.00,60.00,Holiday
213,179014282.67539656
6085,179014282.67539635
2,1, 1, 1, 0,17, 0.00,60.00,Holiday
213,209445193.0452961
6085,209445193.04529595
2,1, 1, 1, 0,18, 0.00,60.00,Holiday
213,269981015.80291945
6085,269981015.80292
2,1, 1, 1, 0,19, 0.00,60.00,Holiday
213,289349414.18611944
6085,289349414.18612
2,1, 1, 1, 0,20, 0.00,60.00,Holiday
213,275114587.6443179
6085,275114587.6443184
2,1, 1, 1, 0,21, 0.00,60.00,Holiday
213,268494912.996446
6085,268494912.9964465
2,1, 1, 1, 0,22, 0.00,60.00,Holiday
213,247973791.59009868
6085,247973791.59009883
2,1, 1, 1, 0,23, 0.00,60.00,Holiday
213,211084719.5428455
6085,211084719.5428453
2,1, 1, 1, 0,24, 0.00,60.00,Holiday
213,182401643.1444415
6085,182401643.14444128
2,2, 1, 2, 0, 1, 0.00,60.00,Monday
213,162991114.62189636
6085,162991114.6218963
2,2, 1, 2, 0, 2, 0.00,60.00,Monday
213,155536901.63927126
6085,155536901.63927102
2,2, 1, 2, 0, 3, 0.00,60.00,Monday
213,153028354.0810788
6085,153028354.08107862
2,2, 1, 2, 0, 4, 0.00,60.00,Monday
213,151911191.95940533
6085,151911191.95940527
2,2, 1, 2, 0, 5, 0.00,60.00,Monday
213,155244399.0491308
6085,155244399.0491306
2,2, 1, 2, 0, 6, 0.00,60.00,Monday
213,172063050.25559184
6085,172063050.25559166
2,2, 1, 2, 0, 7, 0.00,60.00,Monday
213,198258481.6556475
6085,198258481.65564728
2,2, 1, 2, 0, 8, 0.00,60.00,Monday
213,201640522.7056529
6085,201640522.70565265
2,2, 1, 2, 0, 9, 0.00,60.00,Monday
213,194584940.07898825
6085,194584940.07898805
2,2, 1, 2, 0,10, 0.00,60.00,Monday
213,187397204.8601638
6085,187397204.86016357
2,2, 1, 2, 0,11, 0.00,60.00,Monday
213,178172886.22088218
6085,178172886.220882
2,2, 1, 2, 0,12, 0.00,60.00,Monday
213,180126222.99278525
6085,180126222.99278504
2,2, 1, 2, 0,13, 0.00,60.00,Monday
213,177276460.0264569
6085,177276460.02645665
2,2, 1, 2, 0,14, 0.00,60.00,Monday
213,174907173.17470515
6085,174907173.17470494
2,2, 1, 2, 0,15, 0.00,60.00,Monday
213,172188630.4069524
6085,172188630.40695223
2,2, 1, 2, 0,16, 0.00,60.00,Monday
213,180264764.09068826
6085,180264764.09068805
2,2, 1, 2, 0,17, 0.00,60.00,Monday
213,215911082.53658512
6085,215911082.53658497
2,2, 1, 2, 0,18, 0.00,60.00,Monday
213,267277060.56881803
6085,267277060.56881854
2,2, 1, 2, 0,19, 0.00,60.00,Monday
213,289981046.4911412
6085,289981046.4911417
2,2, 1, 2, 0,20, 0.00,60.00,Monday
213,276083322.55046594
6085,276083322.5504665
2,2, 1, 2, 0,21, 0.00,60.00,Monday
213,269419158.86711293
6085,269419158.86711335
2,2, 1, 2, 0,22, 0.00,60.00,Monday
213,248834699.07413238
6085,248834699.07413256
2,2, 1, 2, 0,23, 0.00,60.00,Monday
213,211815788.47217366
6085,211815788.4721735
2,2, 1, 2, 0,24, 0.00,60.00,Monday
213,186066858.90670013
6085,186066858.9066999
2,3, 1, 3, 0, 1, 0.00,60.00,Tuesday
213,166933036.93807486
6085,166933036.93807477
2,3, 1, 3, 0, 2, 0.00,60.00,Tuesday
213,160112264.30318046
6085,160112264.30318028
2,3, 1, 3, 0, 3, 0.00,60.00,Tuesday
213,157663663.56588894
6085,157663663.5658887
2,3, 1, 3, 0, 4, 0.00,60.00,Tuesday
213,156639265.84745565
6085,156639265.84745553
2,3, 1, 3, 0, 5, 0.00,60.00,Tuesday
213,159857076.46795455
6085,159857076.46795437
2,3, 1, 3, 0, 6, 0.00,60.00,Tuesday
213,178757621.62278825
6085,178757621.62278804
2,3, 1, 3, 0, 7, 0.00,60.00,Tuesday
213,204418625.8352275
6085,204418625.8352273
2,3, 1, 3, 0, 8, 0.00,60.00,Tuesday
213,203720644.78468603
6085,203720644.78468588
2,3, 1, 3, 0, 9, 0.00,60.00,Tuesday
213,198953628.99704143
6085,198953628.99704126
2,3, 1, 3, 0,10, 0.00,60.00,Tuesday
213,190494528.2906466
6085,190494528.29064643
2,3, 1, 3, 0,11, 0.00,60.00,Tuesday
213,181234241.22717205
6085,181234241.22717184
2,3, 1, 3, 0,12, 0.00,60.00,Tuesday
213,183249416.71240383
6085,183249416.71240357
2,3, 1, 3, 0,13, 0.00,60.00,Tuesday
213,179910759.414078
6085,179910759.41407782
2,3, 1, 3, 0,14, 0.00,60.00,Tuesday
213,177372905.40519947
6085,177372905.4051993
2,3, 1, 3, 0,15, 0.00,60.00,Tuesday
213,175541657.69822556
6085,175541657.69822538
2,3, 1, 3, 0,16, 0.00,60.00,Tuesday
213,183948720.1029491
6085,183948720.10294887
2,3, 1, 3, 0,17, 0.00,60.00,Tuesday
213,219682354.43012738
6085,219682354.43012717
2,3, 1, 3, 0,18, 0.00,60.00,Tuesday
213,269590452.1887221
6085,269590452.18872255
2,3, 1, 3, 0,19, 0.00,60.00,Tuesday
213,290797971.5944226
6085,290797971.5944231
2,3, 1, 3, 0,20, 0.00,60.00,Tuesday
213,276672326.4792784
6085,276672326.4792789
2,3, 1, 3, 0,21, 0.00,60.00,Tuesday
213,269855229.9048812
6085,269855229.90488166
2,3, 1, 3, 0,22, 0.00,60.00,Tuesday
213,249144867.08353078
6085,249144867.083531
2,3, 1, 3, 0,23, 0.00,60.00,Tuesday
213,212605228.83698776
6085,212605228.83698758
2,3, 1, 3, 0,24, 0.00,60.00,Tuesday
213,185200429.85251153
6085,185200429.85251135
2,4, 1, 4, 0, 1, 0.00,60.00,Wednesday
213,166543998.27684999
6085,166543998.27684993
2,4, 1, 4, 0, 2, 0.00,60.00,Wednesday
213,161160633.6903848
6085,161160633.69038463
2,4, 1, 4, 0, 3, 0.00,60.00,Wednesday
213,161286259.68297452
6085,161286259.68297428
2,4, 1, 4, 0, 4, 0.00,60.00,Wednesday
213,160202074.02456158
6085,160202074.02456146
2,4, 1, 4, 0, 5, 0.00,60.00,Wednesday
213,161598850.17214227
6085,161598850.1721421
2,4, 1, 4, 0, 6, 0.00,60.00,Wednesday
213,178697023.23573935
6085,178697023.2357391
2,4, 1, 4, 0, 7, 0.00,60.00,Wednesday
213,203204744.47931919
6085,203204744.47931898
2,4, 1, 4, 0, 8, 0.00,60.00,Wednesday
213,205402512.35589007
6085,205402512.35588983
2,4, 1, 4, 0, 9, 0.00,60.00,Wednesday
213,199928201.01394078
6085,199928201.01394063
2,4, 1, 4, 0,10, 0.00,60.00,Wednesday
213,190431237.46296048
6085,190431237.4629602
2,4, 1, 4, 0,11, 0.00,60.00,Wednesday
213,177352027.55274
6085,177352027.55273986
2,4, 1, 4, 0,12, 0.00,60.00,Wednesday
213,173994212.3705848
6085,173994212.37058458
2,4, 1, 4, 0,13, 0.00,60.00,Wednesday
213,169379452.676337
6085,169379452.67633682
2,4, 1, 4, 0,14, 0.00,60.00,Wednesday
213,166704612.39306793
6085,166704612.39306772
2,4, 1, 4, 0,15, 0.00,60.00,Wednesday
213,167085273.66543597
6085,167085273.66543573
2,4, 1, 4, 0,16, 0.00,60.00,Wednesday
213,175536678.80808103
6085,175536678.80808085
2,4, 1, 4, 0,17, 0.00,60.00,Wednesday
213,211425303.97331068
6085,211425303.97331053
2,4, 1, 4, 0,18, 0.00,60.00,Wednesday
213,267080828.95337522
6085,267080828.95337576
2,4, 1, 4, 0,19, 0.00,60.00,Wednesday
213,290525638.1781084
6085,290525638.17810893
2,4, 1, 4, 0,20, 0.00,60.00,Wednesday
213,275709463.33692706
6085,275709463.3369276
2,4, 1, 4, 0,21, 0.00,60.00,Wednesday
213,270047273.9214164
6085,270047273.9214169
2,4, 1, 4, 0,22, 0.00,60.00,Wednesday
213,249806452.73535997
6085,249806452.73536012
2,4, 1, 4, 0,23, 0.00,60.00,Wednesday
213,212391168.0353241
6085,212391168.03532392
2,4, 1, 4, 0,24, 0.00,60.00,Wednesday
213,183284162.40727586
6085,183284162.40727565
2,5, 1, 5, 0, 1, 0.00,60.00,Thursday
213,163493819.67197588
6085,163493819.6719758
2,5, 1, 5, 0, 2, 0.00,60.00,Thursday
213,156425934.46853617
6085,156425934.468536
2,5, 1, 5, 0, 3, 0.00,60.00,Thursday
213,155826974.9131395
6085,155826974.91313925
2,5, 1, 5, 0, 4, 0.00,60.00,Thursday
213,154756484.96898538
6085,154756484.96898532
2,5, 1, 5, 0, 5, 0.00,60.00,Thursday
213,156048367.75115976
6085,156048367.75115955
2,5, 1, 5, 0, 6, 0.00,60.00,Thursday
213,174854446.7159896
6085,174854446.71598938
2,5, 1, 5, 0, 7, 0.00,60.00,Thursday
213,202131438.20266533
6085,202131438.20266512
2,5, 1, 5, 0, 8, 0.00,60.00,Thursday
213,202108990.16210702
6085,202108990.1621068
2,5, 1, 5, 0, 9, 0.00,60.00,Thursday
213,191695504.69719797
6085,191695504.69719774
2,5, 1, 5, 0,10, 0.00,60.00,Thursday
213,178550792.00177315
6085,178550792.00177294
2,5, 1, 5, 0,11, 0.00,60.00,Thursday
213,168448626.33955413
6085,168448626.33955392
2,5, 1, 5, 0,12, 0.00,60.00,Thursday
213,169745154.06137457
6085,169745154.06137437
2,5, 1, 5, 0,13, 0.00,60.00,Thursday
213,160897564.10548168
6085,160897564.1054815
2,5, 1, 5, 0,14, 0.00,60.00,Thursday
213,157740082.8680518
6085,157740082.8680516
2,5, 1, 5, 0,15, 0.00,60.00,Thursday
213,161888200.77642348
6085,161888200.7764233
2,5, 1, 5, 0,16, 0.00,60.00,Thursday
213,172200147.85275012
6085,172200147.8527499
2,5, 1, 5, 0,17, 0.00,60.00,Thursday
213,210014533.39352578
6085,210014533.3935256
2,5, 1, 5, 0,18, 0.00,60.00,Thursday
213,259665967.2052502
6085,259665967.2052507
2,5, 1, 5, 0,19, 0.00,60.00,Thursday
213,276653459.10599756
6085,276653459.105998
2,5, 1, 5, 0,20, 0.00,60.00,Thursday
213,262285742.91518643
6085,262285742.91518682
2,5, 1, 5, 0,21, 0.00,60.00,Thursday
213,255416939.62451404
6085,255416939.62451455
2,5, 1, 5, 0,22, 0.00,60.00,Thursday
213,239997466.33422744
6085,239997466.33422756
2,5, 1, 5, 0,23, 0.00,60.00,Thursday
213,207689629.38202888
6085,207689629.38202864
2,5, 1, 5, 0,24, 0.00,60.00,Thursday
213,175758566.89445573
6085,175758566.89445546
2,6, 1, 6, 0, 1, 0.00,60.00,Friday
213,152768812.40758392
6085,152768812.40758386
2,6, 1, 6, 0, 2, 0.00,60.00,Friday
213,146923615.56278923
6085,146923615.56278902
2,6, 1, 6, 0, 3, 0.00,60.00,Friday
213,144356041.6749034
6085,144356041.67490333
2,6, 1, 6, 0, 4, 0.00,60.00,Friday
213,143403875.5493655
6085,143403875.54936543
2,6, 1, 6, 0, 5, 0.00,60.00,Friday
213,146859924.5368303
6085,146859924.53683013
2,6, 1, 6, 0, 6, 0.00,60.00,Friday
213,165524325.87668422
6085,165524325.87668404
2,6, 1, 6, 0, 7, 0.00,60.00,Friday
213,196259241.56463683
6085,196259241.5646366
2,6, 1, 6, 0, 8, 0.00,60.00,Friday
213,200150560.1929718
6085,200150560.1929716
2,6, 1, 6, 0, 9, 0.00,60.00,Friday
213,188290572.03297126
6085,188290572.03297105
2,6, 1, 6, 0,10, 0.00,60.00,Friday
213,177826300.53122723
6085,177826300.53122705
2,6, 1, 6, 0,11, 0.00,60.00,Friday
213,181494187.54709783
6085,181494187.54709765
2,6, 1, 6, 0,12, 0.00,60.00,Friday
213,205188530.3028739
6085,205188530.30287367
2,6, 1, 6, 0,13, 0.00,60.00,Friday
213,215627369.48626757
6085,215627369.48626745
2,6, 1, 6, 0,14, 0.00,60.00,Friday
213,221997314.26359674
6085,221997314.26359656
2,6, 1, 6, 0,15, 0.00,60.00,Friday
213,224495669.94997755
6085,224495669.9499774
2,6, 1, 6, 0,16, 0.00,60.00,Friday
213,232524120.37954864
6085,232524120.37954846
2,6, 1, 6, 0,17, 0.00,60.00,Friday
213,260452947.8456236
6085,260452947.84562382
2,6, 1, 6, 0,18, 0.00,60.00,Friday
213,292622039.20899814
6085,292622039.2089987
2,6, 1, 6, 0,19, 0.00,60.00,Friday
213,309715316.7409773
6085,309715316.7409777
2,6, 1, 6, 0,20, 0.00,60.00,Friday
213,289405283.0157152
6085,289405283.0157157
2,6, 1, 6, 0,21, 0.00,60.00,Friday
213,279272406.8060229
6085,279272406.80602336
2,6, 1, 6, 0,22, 0.00,60.00,Friday
213,254683171.37489694
6085,254683171.37489712
2,6, 1, 6, 0,23, 0.00,60.00,Friday
213,212341596.05191794
6085,212341596.05191776
2,6, 1, 6, 0,24, 0.00,60.00,Friday
213,177501488.70329976
6085,177501488.70329952
2,7, 1, 7, 0, 1, 0.00,60.00,Saturday
213,152934026.67507333
6085,152934026.67507327
2,7, 1, 7, 0, 2, 0.00,60.00,Saturday
213,148044037.5164461
6085,148044037.5164459
2,7, 1, 7, 0, 3, 0.00,60.00,Saturday
213,146120393.83887377
6085,146120393.8388737
2,7, 1, 7, 0, 4, 0.00,60.00,Saturday
213,145399032.24213558
6085,145399032.24213555
2,7, 1, 7, 0, 5, 0.00,60.00,Saturday
213,149413508.89752394
6085,149413508.89752373
2,7, 1, 7, 0, 6, 0.00,60.00,Saturday
213,168418630.32918108
6085,168418630.32918087
2,7, 1, 7, 0, 7, 0.00,60.00,Saturday
213,198776022.96765637
6085,198776022.96765617
2,7, 1, 7, 0, 8, 0.00,60.00,Saturday
213,203154382.6817567
6085,203154382.68175647
2,7, 1, 7, 0, 9, 0.00,60.00,Saturday
213,190423935.60028973
6085,190423935.6002895
2,7, 1, 7, 0,10, 0.00,60.00,Saturday
213,187651711.44181067
6085,187651711.44181046
2,7, 1, 7, 0,11, 0.00,60.00,Saturday
213,189581094.64093572
6085,189581094.6409355
2,7, 1, 7, 0,12, 0.00,60.00,Saturday
213,203004351.60876998
6085,203004351.60876977
2,7, 1, 7, 0,13, 0.00,60.00,Saturday
213,211466282.55759832
6085,211466282.5575981
2,7, 1, 7, 0,14, 0.00,60.00,Saturday
213,212793808.2214718
6085,212793808.2214716
2,7, 1, 7, 0,15, 0.00,60.00,Saturday
213,215253619.25382745
6085,215253619.25382727
2,7, 1, 7, 0,16, 0.00,60.00,Saturday
213,221087289.14407158
6085,221087289.14407143
2,7, 1, 7, 0,17, 0.00,60.00,Saturday
213,258921218.2962642
6085,258921218.29626435
2,7, 1, 7, 0,18, 0.00,60.00,Saturday
213,300251121.2866044
6085,300251121.2866049
2,7, 1, 7, 0,19, 0.00,60.00,Saturday
213,313852334.2548052
6085,313852334.2548058
2,7, 1, 7, 0,20, 0.00,60.00,Saturday
213,294263535.8872803
6085,294263535.88728076
2,7, 1, 7, 0,21, 0.00,60.00,Saturday
213,283957191.5539596
6085,283957191.5539601
2,7, 1, 7, 0,22, 0.00,60.00,Saturday
213,259541550.59495348
6085,259541550.5949536
2,7, 1, 7, 0,23, 0.00,60.00,Saturday
213,216736641.98354352
6085,216736641.98354334
2,7, 1, 7, 0,24, 0.00,60.00,Saturday
213,179976315.3657871
6085,179976315.3657869
2,8, 1, 8, 0, 1, 0.00,60.00,Sunday
213,153928370.31380025
6085,153928370.31380022
2,8, 1, 8, 0, 2, 0.00,60.00,Sunday
213,147127922.02794334
6085,147127922.02794313
2,8, 1, 8, 0, 3, 0.00,60.00,Sunday
213,144391584.00681266
6085,144391584.0068126
2,8, 1, 8, 0, 4, 0.00,60.00,Sunday
213,144368442.41994676
6085,144368442.41994676
2,8, 1, 8, 0, 5, 0.00,60.00,Sunday
213,148184675.86394805
6085,148184675.86394787
2,8, 1, 8, 0, 6, 0.00,60.00,Sunday
213,167166565.94357967
6085,167166565.9435795
2,8, 1, 8, 0, 7, 0.00,60.00,Sunday
213,198928971.70807728
6085,198928971.70807707
2,8, 1, 8, 0, 8, 0.00,60.00,Sunday
213,204120965.26486617
6085,204120965.26486596
2,8, 1, 8, 0, 9, 0.00,60.00,Sunday
213,195328633.1586147
6085,195328633.1586145
2,8, 1, 8, 0,10, 0.00,60.00,Sunday
213,202752450.04087034
6085,202752450.04087013
2,8, 1, 8, 0,11, 0.00,60.00,Sunday
213,216452456.6135578
6085,216452456.61355764
2,8, 1, 8, 0,12, 0.00,60.00,Sunday
213,236643783.06982478
6085,236643783.06982458
2,8, 1, 8, 0,13, 0.00,60.00,Sunday
213,245701070.7301672
6085,245701070.73016703
2,8, 1, 8, 0,14, 0.00,60.00,Sunday
213,247204411.12297606
6085,247204411.12297595
2,8, 1, 8, 0,15, 0.00,60.00,Sunday
213,249698588.0898974
6085,249698588.08989722
2,8, 1, 8, 0,16, 0.00,60.00,Sunday
213,250779178.5339922
6085,250779178.53399202
2,8, 1, 8, 0,17, 0.00,60.00,Sunday
213,283342115.5420518
6085,283342115.542052
2,8, 1, 8, 0,18, 0.00,60.00,Sunday
213,321642852.4650641
6085,321642852.46506464
2,8, 1, 8, 0,19, 0.00,60.00,Sunday
213,331518557.6764104
6085,331518557.676411
2,8, 1, 8, 0,20, 0.00,60.00,Sunday
213,309228122.4926065
6085,309228122.492607
2,8, 1, 8, 0,21, 0.00,60.00,Sunday
213,296334550.99855655
6085,296334550.9985571
2,8, 1, 8, 0,22, 0.00,60.00,Sunday
213,269894242.7574239
6085,269894242.75742406
2,8, 1, 8, 0,23, 0.00,60.00,Sunday
213,224787244.21906787
6085,224787244.21906772
2,8, 1, 8, 0,24, 0.00,60.00,Sunday
213,186378948.51698136
6085,186378948.51698112
2,9, 1, 9, 0, 1, 0.00,60.00,Monday
213,157137801.6713842
6085,157137801.67138407
2,9, 1, 9, 0, 2, 0.00,60.00,Monday
213,149445361.75498635
6085,149445361.75498614
2,9, 1, 9, 0, 3, 0.00,60.00,Monday
213,146103979.83298212
6085,146103979.83298206
2,9, 1, 9, 0, 4, 0.00,60.00,Monday
213,144471355.97636658
6085,144471355.97636655
2,9, 1, 9, 0, 5, 0.00,60.00,Monday
213,147827930.06360048
6085,147827930.06360027
2,9, 1, 9, 0, 6, 0.00,60.00,Monday
213,167351557.81466404
6085,167351557.81466383
2,9, 1, 9, 0, 7, 0.00,60.00,Monday
213,200482419.27495465
6085,200482419.27495444
2,9, 1, 9, 0, 8, 0.00,60.00,Monday
213,206187590.2685208
6085,206187590.2685206
2,9, 1, 9, 0, 9, 0.00,60.00,Monday
213,197386467.74603456
6085,197386467.74603435
2,9, 1, 9, 0,10, 0.00,60.00,Monday
213,206707011.25357687
6085,206707011.25357667
2,9, 1, 9, 0,11, 0.00,60.00,Monday
213,221891664.5403489
6085,221891664.54034877
2,9, 1, 9, 0,12, 0.00,60.00,Monday
213,247951259.36424342
6085,247951259.3642432
2,9, 1, 9, 0,13, 0.00,60.00,Monday
213,261621118.33695847
6085,261621118.3369583
2,9, 1, 9, 0,14, 0.00,60.00,Monday
213,269441425.48962617
6085,269441425.48962593
2,9, 1, 9, 0,15, 0.00,60.00,Monday
213,275466983.91804147
6085,275466983.9180412
2,9, 1, 9, 0,16, 0.00,60.00,Monday
213,284878602.55685365
6085,284878602.5568534
2,9, 1, 9, 0,17, 0.00,60.00,Monday
213,311232262.4099555
6085,311232262.40995574
2,9, 1, 9, 0,18, 0.00,60.00,Monday
213,335981580.46438414
6085,335981580.4643847
2,9, 1, 9, 0,19, 0.00,60.00,Monday
213,345800324.79312605
6085,345800324.79312664
2,9, 1, 9, 0,20, 0.00,60.00,Monday
213,319085836.15825224
6085,319085836.1582527
2,9, 1, 9, 0,21, 0.00,60.00,Monday
213,304475055.22061753
6085,304475055.220618
2,9, 1, 9, 0,22, 0.00,60.00,Monday
213,277496199.63949144
6085,277496199.6394916
2,9, 1, 9, 0,23, 0.00,60.00,Monday
213,232079081.15965447
6085,232079081.15965426
2,9, 1, 9, 0,24, 0.00,60.00,Monday
213,189469816.66980565
6085,189469816.6698054
2,10, 1,10, 0, 1, 0.00,60.00,Tuesday
213,159227707.56108752
6085,159227707.56108746
2,10, 1,10, 0, 2, 0.00,60.00,Tuesday
213,151246489.15316308
6085,151246489.1531629
2,10, 1,10, 0, 3, 0.00,60.00,Tuesday
213,147725538.97759464
6085,147725538.97759455
2,10, 1,10, 0, 4, 0.00,60.00,Tuesday
213,145939067.30843621
6085,145939067.30843621
2,10, 1,10, 0, 5, 0.00,60.00,Tuesday
213,148982288.85168222
6085,148982288.85168207
2,10, 1,10, 0, 6, 0.00,60.00,Tuesday
213,168244574.4319884
6085,168244574.43198818
2,10, 1,10, 0, 7, 0.00,60.00,Tuesday
213,201388819.92832017
6085,201388819.92832002
2,10, 1,10, 0, 8, 0.00,60.00,Tuesday
213,207154946.90366164
6085,207154946.90366146
2,10, 1,10, 0, 9, 0.00,60.00,Tuesday
213,198919305.2716788
6085,198919305.2716786
2,10, 1,10, 0,10, 0.00,60.00,Tuesday
213,208328610.71480775
6085,208328610.71480754
2,10, 1,10, 0,11, 0.00,60.00,Tuesday
213,226670033.86311486
6085,226670033.86311466
2,10, 1,10, 0,12, 0.00,60.00,Tuesday
213,255766952.58053485
6085,255766952.58053467
2,10, 1,10, 0,13, 0.00,60.00,Tuesday
213,267085117.5101181
6085,267085117.51011786
2,10, 1,10, 0,14, 0.00,60.00,Tuesday
213,274403475.40536153
6085,274403475.4053614
2,10, 1,10, 0,15, 0.00,60.00,Tuesday
213,261881181.2053316
6085,261881181.20533144
2,10, 1,10, 0,16, 0.00,60.00,Tuesday
213,157768462.17884707
6085,157768462.17884687
2,10, 1,10, 0,17, 0.00,60.00,Tuesday
213,196153021.05985564
6085,196153021.0598554
2,10, 1,10, 0,18, 0.00,60.00,Tuesday
213,251759367.59837508
6085,251759367.59837556
2,10, 1,10, 0,19, 0.00,60.00,Tuesday
213,284576134.1210608
6085,284576134.1210612
2,10, 1,10, 0,20, 0.00,60.00,Tuesday
213,337439274.9065553
6085,337439274.90655565
2,10, 1,10, 0,21, 0.00,60.00,Tuesday
213,317146342.54132426
6085,317146342.5413246
2,10, 1,10, 0,22, 0.00,60.00,Tuesday
213,286637554.78598845
6085,286637554.78598857
2,10, 1,10, 0,23, 0.00,60.00,Tuesday
213,239277955.93853658
6085,239277955.9385364
2,10, 1,10, 0,24, 0.00,60.00,Tuesday
213,199220431.89604765
6085,199220431.8960474
2,11, 1,11, 0, 1, 0.00,60.00,Wednesday
213,167694899.29798898
6085,167694899.29798892
2,11, 1,11, 0, 2, 0.00,60.00,Wednesday
213,157870711.39785305
6085,157870711.39785284
2,11, 1,11, 0, 3, 0.00,60.00,Wednesday
213,150376229.63302907
6085,150376229.6330289
2,11, 1,11, 0, 4, 0.00,60.00,Wednesday
213,147029138.01928693
6085,147029138.01928693
2,11, 1,11, 0, 5, 0.00,60.00,Wednesday
213,151130603.47720534
6085,151130603.47720513
2,11, 1,11, 0, 6, 0.00,60.00,Wednesday
213,169030589.08706918
6085,169030589.08706897
2,11, 1,11, 0, 7, 0.00,60.00,Wednesday
213,205930507.60265812
6085,205930507.6026579
2,11, 1,11, 0, 8, 0.00,60.00,Wednesday
213,216339718.1043889
6085,216339718.10438868
2,11, 1,11, 0, 9, 0.00,60.00,Wednesday
213,196145845.38033402
6085,196145845.38033378
2,11, 1,11, 0,10, 0.00,60.00,Wednesday
213,187900317.3204794
6085,187900317.32047912
2,11, 1,11, 0,11, 0.00,60.00,Wednesday
213,182713148.54401812
6085,182713148.5440179
2,11, 1,11, 0,12, 0.00,60.00,Wednesday
213,182303558.16293684
6085,182303558.1629366
2,11, 1,11, 0,13, 0.00,60.00,Wednesday
213,180245118.59398672
6085,180245118.59398648
2,11, 1,11, 0,14, 0.00,60.00,Wednesday
213,179852413.48158228
6085,179852413.48158205
2,11, 1,11, 0,15, 0.00,60.00,Wednesday
213,170996643.89794204
6085,170996643.89794183
2,11, 1,11, 0,16, 0.00,60.00,Wednesday
213,176461678.76996562
6085,176461678.7699654
2,11, 1,11, 0,17, 0.00,60.00,Wednesday
213,217172516.42676023
6085,217172516.42676008
2,11, 1,11, 0,18, 0.00,60.00,Wednesday
213,276797381.96951395
6085,276797381.9695145
2,11, 1,11, 0,19, 0.00,60.00,Wednesday
213,308216874.0825616
6085,308216874.08256215
2,11, 1,11, 0,20, 0.00,60.00,Wednesday
213,292475690.05275893
6085,292475690.0527594
2,11, 1,11, 0,21, 0.00,60.00,Wednesday
213,284340427.9423839
6085,284340427.94238436
2,11, 1,11, 0,22, 0.00,60.00,Wednesday
213,261223732.7536602
6085,261223732.75366035
2,11, 1,11, 0,23, 0.00,60.00,Wednesday
213,218252876.8462597
6085,218252876.84625953
2,11, 1,11, 0,24, 0.00,60.00,Wednesday
213,181005995.781639
6085,181005995.78163874
2,12, 1,12, 0, 1, 0.00,60.00,Thursday
213,155141241.41093048
6085,155141241.41093042
2,12, 1,12, 0, 2, 0.00,60.00,Thursday
213,148381083.7763415
6085,148381083.77634126
2,12, 1,12, 0, 3, 0.00,60.00,Thursday
213,145928447.87624845
6085,145928447.87624842
2,12, 1,12, 0, 4, 0.00,60.00,Thursday
213,144529908.80027696
6085,144529908.8002769
2,12, 1,12, 0, 5, 0.00,60.00,Thursday
213,147800195.9348201
6085,147800195.9348199
2,12, 1,12, 0, 6, 0.00,60.00,Thursday
213,166935398.68169004
6085,166935398.68168983
2,12, 1,12, 0, 7, 0.00,60.00,Thursday
213,198639103.62536666
6085,198639103.62536648
2,12, 1,12, 0, 8, 0.00,60.00,Thursday
213,204020801.25396904
6085,204020801.25396886
2,12, 1,12, 0, 9, 0.00,60.00,Thursday
213,191508421.44202378
6085,191508421.44202355
2,12, 1,12, 0,10, 0.00,60.00,Thursday
213,181892569.50492194
6085,181892569.50492176
2,12, 1,12, 0,11, 0.00,60.00,Thursday
213,171939108.72341508
6085,171939108.7234149
2,12, 1,12, 0,12, 0.00,60.00,Thursday
213,173937014.61623564
6085,173937014.6162354
2,12, 1,12, 0,13, 0.00,60.00,Thursday
213,170981296.404819
6085,170981296.40481883
2,12, 1,12, 0,14, 0.00,60.00,Thursday
213,167587373.99819654
6085,167587373.99819636
2,12, 1,12, 0,15, 0.00,60.00,Thursday
213,163528457.11880335
6085,163528457.11880314
2,12, 1,12, 0,16, 0.00,60.00,Thursday
213,172020215.35002387
6085,172020215.35002363
2,12, 1,12, 0,17, 0.00,60.00,Thursday
213,210909134.3358345
6085,210909134.33583435
2,12, 1,12, 0,18, 0.00,60.00,Thursday
213,268972114.63212585
6085,268972114.63212645
2,12, 1,12, 0,19, 0.00,60.00,Thursday
213,298853020.012166
6085,298853020.0121665
2,12, 1,12, 0,20, 0.00,60.00,Thursday
213,284728281.375519
6085,284728281.3755194
2,12, 1,12, 0,21, 0.00,60.00,Thursday
213,275917604.09069645
6085,275917604.0906969
2,12, 1,12, 0,22, 0.00,60.00,Thursday
213,254226802.55473566
6085,254226802.55473587
2,12, 1,12, 0,23, 0.00,60.00,Thursday
213,214512374.54379958
6085,214512374.5437994
2,12, 1,12, 0,24, 0.00,60.00,Thursday
213,179403312.93914545
6085,179403312.93914518
2,13, 1,13, 0, 1, 0.00,60.00,Friday
213,156251712.5308672
6085,156251712.5308671
2,13, 1,13, 0, 2, 0.00,60.00,Friday
213,149918971.18017387
6085,149918971.18017367
2,13, 1,13, 0, 3, 0.00,60.00,Friday
213,147399011.3786046
6085,147399011.37860453
2,13, 1,13, 0, 4, 0.00,60.00,Friday
213,145964855.1379053
6085,145964855.13790527
2,13, 1,13, 0, 5, 0.00,60.00,Friday
213,148678782.47297168
6085,148678782.4729715
2,13, 1,13, 0, 6, 0.00,60.00,Friday
213,167726823.34762645
6085,167726823.34762624
2,13, 1,13, 0, 7, 0.00,60.00,Friday
213,198642616.21406507
6085,198642616.2140649
2,13, 1,13, 0, 8, 0.00,60.00,Friday
213,202289835.84363833
6085,202289835.84363818
2,13, 1,13, 0, 9, 0.00,60.00,Friday
213,191787662.91735524
6085,191787662.91735503
2,13, 1,13, 0,10, 0.00,60.00,Friday
213,182065480.99489707
6085,182065480.99489683
2,13, 1,13, 0,11, 0.00,60.00,Friday
213,171957640.5840968
6085,171957640.58409658
2,13, 1,13, 0,12, 0.00,60.00,Friday
213,172908309.62494344
6085,172908309.6249432
2,13, 1,13, 0,13, 0.00,60.00,Friday
213,168425956.31262812
6085,168425956.3126279
2,13, 1,13, 0,14, 0.00,60.00,Friday
213,165444878.03993237
6085,165444878.0399322
2,13, 1,13, 0,15, 0.00,60.00,Friday
213,162994078.6914246
6085,162994078.69142443
2,13, 1,13, 0,16, 0.00,60.00,Friday
213,172023031.79595664
6085,172023031.79595643
2,13, 1,13, 0,17, 0.00,60.00,Friday
213,210246113.14560583
6085,210246113.14560565
2,13, 1,13, 0,18, 0.00,60.00,Friday
213,266050725.3941969
6085,266050725.3941974
2,13, 1,13, 0,19, 0.00,60.00,Friday
213,294881464.69753504
6085,294881464.6975356
2,13, 1,13, 0,20, 0.00,60.00,Friday
213,280185237.5678472
6085,280185237.5678477
2,13, 1,13, 0,21, 0.00,60.00,Friday
213,271827875.52160424
6085,271827875.5216048
2,13, 1,13, 0,22, 0.00,60.00,Friday
213,250273747.3706488
6085,250273747.37064895
2,13, 1,13, 0,23, 0.00,60.00,Friday
213,211454482.68448985
6085,211454482.68448967
2,13, 1,13, 0,24, 0.00,60.00,Friday
213,179461013.870044
6085,179461013.87004378
2,14, 1,14, 0, 1, 0.00,60.00,Saturday
213,156358865.53447732
6085,156358865.53447726
2,14, 1,14, 0, 2, 0.00,60.00,Saturday
213,150183092.10660598
6085,150183092.10660577
2,14, 1,14, 0, 3, 0.00,60.00,Saturday
213,147516814.19265914
6085,147516814.19265908
2,14, 1,14, 0, 4, 0.00,60.00,Saturday
213,146178629.3749798
6085,146178629.37497973
2,14, 1,14, 0, 5, 0.00,60.00,Saturday
213,149058135.44194257
6085,149058135.4419424
2,14, 1,14, 0, 6, 0.00,60.00,Saturday
213,167909962.14459497
6085,167909962.14459476
2,14, 1,14, 0, 7, 0.00,60.00,Saturday
213,198764330.79931045
6085,198764330.7993102
2,14, 1,14, 0, 8, 0.00,60.00,Saturday
213,202182143.09554318
6085,202182143.09554294
2,14, 1,14, 0, 9, 0.00,60.00,Saturday
213,188779515.20383972
6085,188779515.2038395
2,14, 1,14, 0,10, 0.00,60.00,Saturday
213,178855858.86184424
6085,178855858.861844
2,14, 1,14, 0,11, 0.00,60.00,Saturday
213,167842808.2179743
6085,167842808.21797413
2,14, 1,14, 0,12, 0.00,60.00,Saturday
213,170121978.01670793
6085,170121978.01670766
2,14, 1,14, 0,13, 0.00,60.00,Saturday
213,168394332.6259109
6085,168394332.6259107
2,14, 1,14, 0,14, 0.00,60.00,Saturday
213,162224436.9429226
6085,162224436.94292235
2,14, 1,14, 0,15, 0.00,60.00,Saturday
213,162252881.02172056
6085,162252881.02172035
2,14, 1,14, 0,16, 0.00,60.00,Saturday
213,170581690.36317056
6085,170581690.36317036
2,14, 1,14, 0,17, 0.00,60.00,Saturday
213,207549976.21551707
6085,207549976.21551692
2,14, 1,14, 0,18, 0.00,60.00,Saturday
213,266080864.09005862
6085,266080864.09005913
2,14, 1,14, 0,19, 0.00,60.00,Saturday
213,291555608.6056171
6085,291555608.60561764
2,14, 1,14, 0,20, 0.00,60.00,Saturday
213,277053148.3753715
6085,277053148.37537193
2,14, 1,14, 0,21, 0.00,60.00,Saturday
213,269878349.0828266
6085,269878349.08282703
2,14, 1,14, 0,22, 0.00,60.00,Saturday
213,248581254.11659393
6085,248581254.1165941
2,14, 1,14, 0,23, 0.00,60.00,Saturday
213,211120935.8576474
6085,211120935.8576472
2,14, 1,14, 0,24, 0.00,60.00,Saturday
213,179609987.32272494
6085,179609987.32272473
2,15, 1,15, 0, 1, 0.00,60.00,Sunday
213,156159399.92263746
6085,156159399.9226374
2,15, 1,15, 0, 2, 0.00,60.00,Sunday
213,149774772.34789667
6085,149774772.34789646
2,15, 1,15, 0, 3, 0.00,60.00,Sunday
213,147431085.29889104
6085,147431085.29889098
2,15, 1,15, 0, 4, 0.00,60.00,Sunday
213,146098661.8531493
6085,146098661.85314927
2,15, 1,15, 0, 5, 0.00,60.00,Sunday
213,148856718.031872
6085,148856718.0318718
2,15, 1,15, 0, 6, 0.00,60.00,Sunday
213,166941043.21417233
6085,166941043.21417212
2,15, 1,15, 0, 7, 0.00,60.00,Sunday
213,197816935.98000935
6085,197816935.98000917
2,15, 1,15, 0, 8, 0.00,60.00,Sunday
213,201851714.1841015
6085,201851714.18410128
2,15, 1,15, 0, 9, 0.00,60.00,Sunday
213,188811598.72904864
6085,188811598.72904843
2,15, 1,15, 0,10, 0.00,60.00,Sunday
213,179121647.24514857
6085,179121647.24514833
2,15, 1,15, 0,11, 0.00,60.00,Sunday
213,168844913.0396443
6085,168844913.0396441
2,15, 1,15, 0,12, 0.00,60.00,Sunday
213,170344659.7711844
6085,170344659.77118415
2,15, 1,15, 0,13, 0.00,60.00,Sunday
213,168453304.91381907
6085,168453304.9138189
2,15, 1,15, 0,14, 0.00,60.00,Sunday
213,163491192.67309195
6085,163491192.6730917
2,15, 1,15, 0,15, 0.00,60.00,Sunday
213,161927875.78665334
6085,161927875.78665313
2,15, 1,15, 0,16, 0.00,60.00,Sunday
213,169913576.70895717
6085,169913576.70895696
2,15, 1,15, 0,17, 0.00,60.00,Sunday
213,207474011.90896785
6085,207474011.90896773