Program Version,EnergyPlus, Version 26.1.0-6f2e40d102, YMD=2026.04.15 00:30
1,5,Environment Title[],Latitude[deg],Longitude[deg],Time Zone[],Elevation[m]
2,8,Day of Simulation[],Month[],Day of Month[],DST Indicator[1=yes 0=no],Hour[],StartMinute[],EndMinute[],DayType
3,5,Cumulative Day of Simulation[],Month[],Day of Month[],DST Indicator[1=yes 0=no],DayType  ! When Daily Meters Requested
4,2,Cumulative Days of Simulation[],Month[]  ! When Monthly Meters Requested
5,1,Cumulative Days of Simulation[] ! When Run Period Meters Requested
6,1,Calendar Year of Simulation[] ! When Annual Meters Requested
213,1,Electricity:Facility [J] !Hourly
6085,1,ElectricityNet:Facility [J] !Hourly
End of Data Dictionary
1,RUNPERIOD 1,  28.11, 112.79,   8.00, 120.00
2,1, 1, 1, 0, 1, 0.00,60.00,Holiday
213,159265948.63623384
6085,159265948.63623378
2,1, 1, 1, 0, 2, 0.00,60.00,Holiday
213,151820230.62089533
6085,151820230.6208951
2,1, 1, 1, 0, 3, 0.00,60.00,Holiday
213,149773087.07234538
6085,149773087.07234523
2,1, 1, 1, 0, 4, 0.00,60.00,Holiday
213,148416977.09133872
6085,148416977.09133866
2,1, 1, 1, 0, 5, 0.00,60.00,Holiday
213,151544525.6304725
6085,151544525.63047233
2,1, 1, 1, 0, 6, 0.00,60.00,Holiday
213,168407165.52891445
6085,168407165.52891427
2,1, 1, 1, 0, 7, 0.00,60.00,Holiday
213,197954550.35827622
6085,197954550.358276
2,1, 1, 1, 0, 8, 0.00,60.00,Holiday
213,201445041.1870162
6085,201445041.18701604
2,1, 1, 1, 0, 9, 0.00,60.00,Holiday
213,188311037.27291015
6085,188311037.27290994
2,1, 1, 1, 0,10, 0.00,60.00,Holiday
213,179253256.60721815
6085,179253256.6072179
2,1, 1, 1, 0,11, 0.00,60.00,Holiday
213,169593830.5226984
6085,169593830.5226982
2,1, 1, 1, 0,12, 0.00,60.00,Holiday
213,173079760.21136394
6085,173079760.2113637
2,1, 1, 1, 0,13, 0.00,60.00,Holiday
213,172008679.4365486
6085,172008679.43654835
2,1, 1, 1, 0,14, 0.00,60.00,Holiday
213,165598433.34257394
6085,165598433.34257373
2,1, 1, 1, 0,15, 0.00,60.00,Holiday
213,166218746.14210242
6085,166218746.1421022
2,1, 1, 1, 0,16, 0.00,60.00,Holiday
213,177032016.53700376
6085,177032016.53700355
2,1, 1, 1, 0,17, 0.00,60.00,Holiday
213,209549477.86810458
6085,209549477.8681044
2,1, 1, 1, 0,18, 0.00,60.00,Holiday
213,271049036.64393485
6085,271049036.6439353
2,1, 1, 1, 0,19, 0.00,60.00,Holiday
213,290256109.82473654
6085,290256109.8247371
2,1, 1, 1, 0,20, 0.00,60.00,Holiday
213,275977519.9091489
6085,275977519.9091493
2,1, 1, 1, 0,21, 0.00,60.00,Holiday
213,269506249.6139177
6085,269506249.6139181
2,1, 1, 1, 0,22, 0.00,60.00,Holiday
213,249245183.35186458
6085,249245183.35186476
2,1, 1, 1, 0,23, 0.00,60.00,Holiday
213,212334005.70137292
6085,212334005.70137274
2,1, 1, 1, 0,24, 0.00,60.00,Holiday
213,182335206.91235635
6085,182335206.91235614
2,2, 1, 2, 0, 1, 0.00,60.00,Monday
213,159619338.64304346
6085,159619338.64304337
2,2, 1, 2, 0, 2, 0.00,60.00,Monday
213,153470829.76320118
6085,153470829.76320097
2,2, 1, 2, 0, 3, 0.00,60.00,Monday
213,150518794.07056105
6085,150518794.07056093
2,2, 1, 2, 0, 4, 0.00,60.00,Monday
213,149478040.7435515
6085,149478040.7435515
2,2, 1, 2, 0, 5, 0.00,60.00,Monday
213,152806836.60657954
6085,152806836.60657936
2,2, 1, 2, 0, 6, 0.00,60.00,Monday
213,169870862.1080261
6085,169870862.1080259
2,2, 1, 2, 0, 7, 0.00,60.00,Monday
213,197528323.66632563
6085,197528323.6663254
2,2, 1, 2, 0, 8, 0.00,60.00,Monday
213,201271851.5852522
6085,201271851.58525202
2,2, 1, 2, 0, 9, 0.00,60.00,Monday
213,191981984.25203335
6085,191981984.25203314
2,2, 1, 2, 0,10, 0.00,60.00,Monday
213,184820604.07807288
6085,184820604.07807264
2,2, 1, 2, 0,11, 0.00,60.00,Monday
213,175154648.81197804
6085,175154648.81197786
2,2, 1, 2, 0,12, 0.00,60.00,Monday
213,177541542.7838359
6085,177541542.78383565
2,2, 1, 2, 0,13, 0.00,60.00,Monday
213,174543556.25612813
6085,174543556.25612795
2,2, 1, 2, 0,14, 0.00,60.00,Monday
213,172558824.99470633
6085,172558824.99470612
2,2, 1, 2, 0,15, 0.00,60.00,Monday
213,169679451.55454746
6085,169679451.5545473
2,2, 1, 2, 0,16, 0.00,60.00,Monday
213,178506639.37762216
6085,178506639.37762195
2,2, 1, 2, 0,17, 0.00,60.00,Monday
213,213297029.10775504
6085,213297029.10775486
2,2, 1, 2, 0,18, 0.00,60.00,Monday
213,266263636.9788721
6085,266263636.9788726
2,2, 1, 2, 0,19, 0.00,60.00,Monday
213,289574012.398269
6085,289574012.3982695
2,2, 1, 2, 0,20, 0.00,60.00,Monday
213,275704824.7447555
6085,275704824.744756
2,2, 1, 2, 0,21, 0.00,60.00,Monday
213,268955455.28238744
6085,268955455.2823879
2,2, 1, 2, 0,22, 0.00,60.00,Monday
213,248350363.61033106
6085,248350363.61033124
2,2, 1, 2, 0,23, 0.00,60.00,Monday
213,211479345.54339254
6085,211479345.5433923
2,2, 1, 2, 0,24, 0.00,60.00,Monday
213,183122872.90583518
6085,183122872.90583497
2,3, 1, 3, 0, 1, 0.00,60.00,Tuesday
213,163553884.46188283
6085,163553884.4618828
2,3, 1, 3, 0, 2, 0.00,60.00,Tuesday
213,156531150.8062153
6085,156531150.80621508
2,3, 1, 3, 0, 3, 0.00,60.00,Tuesday
213,154073364.3162682
6085,154073364.31626797
2,3, 1, 3, 0, 4, 0.00,60.00,Tuesday
213,153044554.034892
6085,153044554.0348919
2,3, 1, 3, 0, 5, 0.00,60.00,Tuesday
213,156314630.27161473
6085,156314630.27161452
2,3, 1, 3, 0, 6, 0.00,60.00,Tuesday
213,175715685.47603416
6085,175715685.47603396
2,3, 1, 3, 0, 7, 0.00,60.00,Tuesday
213,201079921.55933982
6085,201079921.55933964
2,3, 1, 3, 0, 8, 0.00,60.00,Tuesday
213,202082033.14805588
6085,202082033.1480557
2,3, 1, 3, 0, 9, 0.00,60.00,Tuesday
213,196668627.6821123
6085,196668627.6821121
2,3, 1, 3, 0,10, 0.00,60.00,Tuesday
213,187825636.2920599
6085,187825636.29205966
2,3, 1, 3, 0,11, 0.00,60.00,Tuesday
213,178663287.77692774
6085,178663287.7769276
2,3, 1, 3, 0,12, 0.00,60.00,Tuesday
213,180664816.02756172
6085,180664816.02756155
2,3, 1, 3, 0,13, 0.00,60.00,Tuesday
213,177284520.9388939
6085,177284520.93889377
2,3, 1, 3, 0,14, 0.00,60.00,Tuesday
213,174655073.66496086
6085,174655073.66496062
2,3, 1, 3, 0,15, 0.00,60.00,Tuesday
213,172919059.60459563
6085,172919059.60459548
2,3, 1, 3, 0,16, 0.00,60.00,Tuesday
213,181379152.79669148
6085,181379152.7966913
2,3, 1, 3, 0,17, 0.00,60.00,Tuesday
213,217371018.88718802
6085,217371018.88718784
2,3, 1, 3, 0,18, 0.00,60.00,Tuesday
213,267951282.5652087
6085,267951282.5652092
2,3, 1, 3, 0,19, 0.00,60.00,Tuesday
213,290396033.498646
6085,290396033.49864656
2,3, 1, 3, 0,20, 0.00,60.00,Tuesday
213,276169893.23670876
6085,276169893.2367092
2,3, 1, 3, 0,21, 0.00,60.00,Tuesday
213,269452595.0757909
6085,269452595.0757914
2,3, 1, 3, 0,22, 0.00,60.00,Tuesday
213,248703361.66782212
6085,248703361.6678223
2,3, 1, 3, 0,23, 0.00,60.00,Tuesday
213,211604709.17546088
6085,211604709.17546067
2,3, 1, 3, 0,24, 0.00,60.00,Tuesday
213,183077923.32548052
6085,183077923.32548028
2,4, 1, 4, 0, 1, 0.00,60.00,Wednesday
213,162824729.10619578
6085,162824729.10619572
2,4, 1, 4, 0, 2, 0.00,60.00,Wednesday
213,157859546.44273522
6085,157859546.44273502
2,4, 1, 4, 0, 3, 0.00,60.00,Wednesday
213,158173243.92801717
6085,158173243.928017
2,4, 1, 4, 0, 4, 0.00,60.00,Wednesday
213,157872244.25646663
6085,157872244.2564665
2,4, 1, 4, 0, 5, 0.00,60.00,Wednesday
213,159241098.56663153
6085,159241098.56663135
2,4, 1, 4, 0, 6, 0.00,60.00,Wednesday
213,176348978.84086558
6085,176348978.84086537
2,4, 1, 4, 0, 7, 0.00,60.00,Wednesday
213,201772831.0474128
6085,201772831.0474126
2,4, 1, 4, 0, 8, 0.00,60.00,Wednesday
213,202123463.69363767
6085,202123463.6936375
2,4, 1, 4, 0, 9, 0.00,60.00,Wednesday
213,198071031.79867718
6085,198071031.79867697
2,4, 1, 4, 0,10, 0.00,60.00,Wednesday
213,187948287.95893717
6085,187948287.95893693
2,4, 1, 4, 0,11, 0.00,60.00,Wednesday
213,175059415.8735247
6085,175059415.8735245
2,4, 1, 4, 0,12, 0.00,60.00,Wednesday
213,172726392.36724693
6085,172726392.36724666
2,4, 1, 4, 0,13, 0.00,60.00,Wednesday
213,169436325.55453554
6085,169436325.55453536
2,4, 1, 4, 0,14, 0.00,60.00,Wednesday
213,166200862.201097
6085,166200862.20109677
2,4, 1, 4, 0,15, 0.00,60.00,Wednesday
213,165600710.91346952
6085,165600710.91346928
2,4, 1, 4, 0,16, 0.00,60.00,Wednesday
213,174090325.30584395
6085,174090325.30584368
2,4, 1, 4, 0,17, 0.00,60.00,Wednesday
213,210863166.53513035
6085,210863166.5351302
2,4, 1, 4, 0,18, 0.00,60.00,Wednesday
213,266523813.00177383
6085,266523813.00177437
2,4, 1, 4, 0,19, 0.00,60.00,Wednesday
213,290009514.7377617
6085,290009514.73776215
2,4, 1, 4, 0,20, 0.00,60.00,Wednesday
213,275021416.29158545
6085,275021416.29158604
2,4, 1, 4, 0,21, 0.00,60.00,Wednesday
213,269434504.7708115
6085,269434504.7708119
2,4, 1, 4, 0,22, 0.00,60.00,Wednesday
213,249293476.4608396
6085,249293476.46083972
2,4, 1, 4, 0,23, 0.00,60.00,Wednesday
213,211856712.3652206
6085,211856712.36522037
2,4, 1, 4, 0,24, 0.00,60.00,Wednesday
213,181315568.59352434
6085,181315568.59352413
2,5, 1, 5, 0, 1, 0.00,60.00,Thursday
213,161190570.71893266
6085,161190570.7189326
2,5, 1, 5, 0, 2, 0.00,60.00,Thursday
213,153500920.53347084
6085,153500920.53347063
2,5, 1, 5, 0, 3, 0.00,60.00,Thursday
213,153276378.9346885
6085,153276378.93468833
2,5, 1, 5, 0, 4, 0.00,60.00,Thursday
213,151800959.7132011
6085,151800959.71320108
2,5, 1, 5, 0, 5, 0.00,60.00,Thursday
213,153321831.10952276
6085,153321831.10952252
2,5, 1, 5, 0, 6, 0.00,60.00,Thursday
213,172310509.9384407
6085,172310509.93844053
2,5, 1, 5, 0, 7, 0.00,60.00,Thursday
213,200153275.2054494
6085,200153275.2054492
2,5, 1, 5, 0, 8, 0.00,60.00,Thursday
213,203065988.3283047
6085,203065988.32830453
2,5, 1, 5, 0, 9, 0.00,60.00,Thursday
213,190649368.6734571
6085,190649368.67345685
2,5, 1, 5, 0,10, 0.00,60.00,Thursday
213,178647001.9291686
6085,178647001.9291684
2,5, 1, 5, 0,11, 0.00,60.00,Thursday
213,168355967.50501204
6085,168355967.50501183
2,5, 1, 5, 0,12, 0.00,60.00,Thursday
213,167903881.56875134
6085,167903881.56875107
2,5, 1, 5, 0,13, 0.00,60.00,Thursday
213,155458623.11808246
6085,155458623.11808228
2,5, 1, 5, 0,14, 0.00,60.00,Thursday
213,161562866.42241126
6085,161562866.42241105
2,5, 1, 5, 0,15, 0.00,60.00,Thursday
213,162253982.5806826
6085,162253982.58068243
2,5, 1, 5, 0,16, 0.00,60.00,Thursday
213,172554046.81710884
6085,172554046.81710863
2,5, 1, 5, 0,17, 0.00,60.00,Thursday
213,210500643.493832
6085,210500643.49383178
2,5, 1, 5, 0,18, 0.00,60.00,Thursday
213,261617378.39046252
6085,261617378.39046302
2,5, 1, 5, 0,19, 0.00,60.00,Thursday
213,283868020.4378578
6085,283868020.4378582
2,5, 1, 5, 0,20, 0.00,60.00,Thursday
213,262285742.91518643
6085,262285742.91518682
2,5, 1, 5, 0,21, 0.00,60.00,Thursday
213,255416939.62451404
6085,255416939.62451455
2,5, 1, 5, 0,22, 0.00,60.00,Thursday
213,234543058.46444806
6085,234543058.46444824
2,5, 1, 5, 0,23, 0.00,60.00,Thursday
213,205718160.22553962
6085,205718160.22553945
2,5, 1, 5, 0,24, 0.00,60.00,Thursday
213,175405345.5671771
6085,175405345.56717682
2,6, 1, 6, 0, 1, 0.00,60.00,Friday
213,152009809.48745614
6085,152009809.48745605
2,6, 1, 6, 0, 2, 0.00,60.00,Friday
213,146307921.72439164
6085,146307921.7243914
2,6, 1, 6, 0, 3, 0.00,60.00,Friday
213,143520492.15538126
6085,143520492.1553812
2,6, 1, 6, 0, 4, 0.00,60.00,Friday
213,142689858.48034173
6085,142689858.48034173
2,6, 1, 6, 0, 5, 0.00,60.00,Friday
213,146220686.94920132
6085,146220686.94920114
2,6, 1, 6, 0, 6, 0.00,60.00,Friday
213,164800502.31491563
6085,164800502.31491545
2,6, 1, 6, 0, 7, 0.00,60.00,Friday
213,195590210.23150775
6085,195590210.23150754
2,6, 1, 6, 0, 8, 0.00,60.00,Friday
213,199607744.94439816
6085,199607744.94439796
2,6, 1, 6, 0, 9, 0.00,60.00,Friday
213,187707740.72890243
6085,187707740.7289022
2,6, 1, 6, 0,10, 0.00,60.00,Friday
213,179066611.45644185
6085,179066611.4564416
2,6, 1, 6, 0,11, 0.00,60.00,Friday
213,186762008.96741948
6085,186762008.9674193
2,6, 1, 6, 0,12, 0.00,60.00,Friday
213,210934107.39082983
6085,210934107.3908296
2,6, 1, 6, 0,13, 0.00,60.00,Friday
213,220912806.01008877
6085,220912806.0100886
2,6, 1, 6, 0,14, 0.00,60.00,Friday
213,226878685.41897583
6085,226878685.41897568
2,6, 1, 6, 0,15, 0.00,60.00,Friday
213,229456402.49736106
6085,229456402.4973609
2,6, 1, 6, 0,16, 0.00,60.00,Friday
213,237100251.69919223
6085,237100251.69919208
2,6, 1, 6, 0,17, 0.00,60.00,Friday
213,264662311.81534982
6085,264662311.8153501
2,6, 1, 6, 0,18, 0.00,60.00,Friday
213,296065583.7774295
6085,296065583.77742994
2,6, 1, 6, 0,19, 0.00,60.00,Friday
213,312783687.461345
6085,312783687.4613455
2,6, 1, 6, 0,20, 0.00,60.00,Friday
213,292232697.1110129
6085,292232697.11101335
2,6, 1, 6, 0,21, 0.00,60.00,Friday
213,281815831.67975366
6085,281815831.6797541
2,6, 1, 6, 0,22, 0.00,60.00,Friday
213,256938653.9705427
6085,256938653.97054285
2,6, 1, 6, 0,23, 0.00,60.00,Friday
213,214262839.17084152
6085,214262839.1708413
2,6, 1, 6, 0,24, 0.00,60.00,Friday
213,178454966.07700655
6085,178454966.07700634
2,7, 1, 7, 0, 1, 0.00,60.00,Saturday
213,152546958.72547364
6085,152546958.72547358
2,7, 1, 7, 0, 2, 0.00,60.00,Saturday
213,147270714.40674078
6085,147270714.4067406
2,7, 1, 7, 0, 3, 0.00,60.00,Saturday
213,145489099.22213647
6085,145489099.2221364
2,7, 1, 7, 0, 4, 0.00,60.00,Saturday
213,144781506.6641761
6085,144781506.66417605
2,7, 1, 7, 0, 5, 0.00,60.00,Saturday
213,148805734.1521805
6085,148805734.15218034
2,7, 1, 7, 0, 6, 0.00,60.00,Saturday
213,168164583.2322677
6085,168164583.2322675
2,7, 1, 7, 0, 7, 0.00,60.00,Saturday
213,199179027.2890153
6085,199179027.28901505
2,7, 1, 7, 0, 8, 0.00,60.00,Saturday
213,203817870.63670075
6085,203817870.6367005
2,7, 1, 7, 0, 9, 0.00,60.00,Saturday
213,191439081.9586807
6085,191439081.95868045
2,7, 1, 7, 0,10, 0.00,60.00,Saturday
213,190381527.662306
6085,190381527.6623058
2,7, 1, 7, 0,11, 0.00,60.00,Saturday
213,192727691.89575103
6085,192727691.89575082
2,7, 1, 7, 0,12, 0.00,60.00,Saturday
213,206518840.27094892
6085,206518840.2709487
2,7, 1, 7, 0,13, 0.00,60.00,Saturday
213,215023787.6418344
6085,215023787.64183426
2,7, 1, 7, 0,14, 0.00,60.00,Saturday
213,216291790.7471202
6085,216291790.74712002
2,7, 1, 7, 0,15, 0.00,60.00,Saturday
213,218653135.1304016
6085,218653135.13040146
2,7, 1, 7, 0,16, 0.00,60.00,Saturday
213,224507697.47001824
6085,224507697.47001806
2,7, 1, 7, 0,17, 0.00,60.00,Saturday
213,262145096.67710418
6085,262145096.67710435
2,7, 1, 7, 0,18, 0.00,60.00,Saturday
213,303087080.5641658
6085,303087080.5641662
2,7, 1, 7, 0,19, 0.00,60.00,Saturday
213,316862035.9144331
6085,316862035.9144336
2,7, 1, 7, 0,20, 0.00,60.00,Saturday
213,296813651.1913972
6085,296813651.19139767
2,7, 1, 7, 0,21, 0.00,60.00,Saturday
213,286235882.4882425
6085,286235882.488243
2,7, 1, 7, 0,22, 0.00,60.00,Saturday
213,261625099.4185893
6085,261625099.41858944
2,7, 1, 7, 0,23, 0.00,60.00,Saturday
213,218692469.33236894
6085,218692469.33236876
2,7, 1, 7, 0,24, 0.00,60.00,Saturday
213,181190513.91709462
6085,181190513.91709438
2,8, 1, 8, 0, 1, 0.00,60.00,Sunday
213,154377216.99653593
6085,154377216.99653587
2,8, 1, 8, 0, 2, 0.00,60.00,Sunday
213,147395777.4288045
6085,147395777.42880425
2,8, 1, 8, 0, 3, 0.00,60.00,Sunday
213,144012484.993156
6085,144012484.99315596
2,8, 1, 8, 0, 4, 0.00,60.00,Sunday
213,142679484.23962462
6085,142679484.23962456
2,8, 1, 8, 0, 5, 0.00,60.00,Sunday
213,147529333.92617315
6085,147529333.92617297
2,8, 1, 8, 0, 6, 0.00,60.00,Sunday
213,165939303.6954884
6085,165939303.6954882
2,8, 1, 8, 0, 7, 0.00,60.00,Sunday
213,198900951.29475445
6085,198900951.29475427
2,8, 1, 8, 0, 8, 0.00,60.00,Sunday
213,204322325.1375674
6085,204322325.13756722
2,8, 1, 8, 0, 9, 0.00,60.00,Sunday
213,196966852.85887507
6085,196966852.85887486
2,8, 1, 8, 0,10, 0.00,60.00,Sunday
213,205177505.64806953
6085,205177505.64806932
2,8, 1, 8, 0,11, 0.00,60.00,Sunday
213,219664398.57677633
6085,219664398.57677618
2,8, 1, 8, 0,12, 0.00,60.00,Sunday
213,239817645.2272232
6085,239817645.227223
2,8, 1, 8, 0,13, 0.00,60.00,Sunday
213,248807632.7478808
6085,248807632.74788064
2,8, 1, 8, 0,14, 0.00,60.00,Sunday
213,250301864.85112104
6085,250301864.8511209
2,8, 1, 8, 0,15, 0.00,60.00,Sunday
213,253600598.7885073
6085,253600598.78850722
2,8, 1, 8, 0,16, 0.00,60.00,Sunday
213,256328520.47056133
6085,256328520.47056112
2,8, 1, 8, 0,17, 0.00,60.00,Sunday
213,289645118.63115746
6085,289645118.6311577
2,8, 1, 8, 0,18, 0.00,60.00,Sunday
213,327579309.2498514
6085,327579309.24985194
2,8, 1, 8, 0,19, 0.00,60.00,Sunday
213,337083549.11745894
6085,337083549.1174594
2,8, 1, 8, 0,20, 0.00,60.00,Sunday
213,314051783.5637434
6085,314051783.5637438
2,8, 1, 8, 0,21, 0.00,60.00,Sunday
213,300333838.7338438
6085,300333838.7338442
2,8, 1, 8, 0,22, 0.00,60.00,Sunday
213,273592563.8524036
6085,273592563.85240376
2,8, 1, 8, 0,23, 0.00,60.00,Sunday
213,228063148.1535151
6085,228063148.15351492
2,8, 1, 8, 0,24, 0.00,60.00,Sunday
213,187993286.0654474
6085,187993286.06544715
2,9, 1, 9, 0, 1, 0.00,60.00,Monday
213,158236474.15211865
6085,158236474.1521186
2,9, 1, 9, 0, 2, 0.00,60.00,Monday
213,149758230.280604
6085,149758230.28060383
2,9, 1, 9, 0, 3, 0.00,60.00,Monday
213,146169168.2574794
6085,146169168.2574793
2,9, 1, 9, 0, 4, 0.00,60.00,Monday
213,144579049.33882543
6085,144579049.3388254
2,9, 1, 9, 0, 5, 0.00,60.00,Monday
213,147929018.51506028
6085,147929018.51506004
2,9, 1, 9, 0, 6, 0.00,60.00,Monday
213,167481869.33219212
6085,167481869.3321919
2,9, 1, 9, 0, 7, 0.00,60.00,Monday
213,200705448.64462906
6085,200705448.64462882
2,9, 1, 9, 0, 8, 0.00,60.00,Monday
213,206590336.18519744
6085,206590336.1851973
2,9, 1, 9, 0, 9, 0.00,60.00,Monday
213,198695426.04544693
6085,198695426.0454467
2,9, 1, 9, 0,10, 0.00,60.00,Monday
213,208818046.64219797
6085,208818046.6421978
2,9, 1, 9, 0,11, 0.00,60.00,Monday
213,224759095.58134526
6085,224759095.5813451
2,9, 1, 9, 0,12, 0.00,60.00,Monday
213,252848655.6558292
6085,252848655.65582904
2,9, 1, 9, 0,13, 0.00,60.00,Monday
213,266775896.93770218
6085,266775896.93770206
2,9, 1, 9, 0,14, 0.00,60.00,Monday
213,275548170.46227837
6085,275548170.46227825
2,9, 1, 9, 0,15, 0.00,60.00,Monday
213,281724911.1684809
6085,281724911.1684808
2,9, 1, 9, 0,16, 0.00,60.00,Monday
213,291061057.5682334
6085,291061057.56823325
2,9, 1, 9, 0,17, 0.00,60.00,Monday
213,317121006.05263513
6085,317121006.05263543
2,9, 1, 9, 0,18, 0.00,60.00,Monday
213,341342164.0394747
6085,341342164.03947526
2,9, 1, 9, 0,19, 0.00,60.00,Monday
213,350657307.0198972
6085,350657307.0198977
2,9, 1, 9, 0,20, 0.00,60.00,Monday
213,323666680.0800404
6085,323666680.0800409
2,9, 1, 9, 0,21, 0.00,60.00,Monday
213,308519026.275226
6085,308519026.2752265
2,9, 1, 9, 0,22, 0.00,60.00,Monday
213,281003418.8929403
6085,281003418.89294046
2,9, 1, 9, 0,23, 0.00,60.00,Monday
213,234633628.01620206
6085,234633628.01620188
2,9, 1, 9, 0,24, 0.00,60.00,Monday
213,191432027.8389719
6085,191432027.8389717
2,10, 1,10, 0, 1, 0.00,60.00,Tuesday
213,160195208.48698896
6085,160195208.48698887
2,10, 1,10, 0, 2, 0.00,60.00,Tuesday
213,151755394.42334482
6085,151755394.42334464
2,10, 1,10, 0, 3, 0.00,60.00,Tuesday
213,147965025.18271235
6085,147965025.18271223
2,10, 1,10, 0, 4, 0.00,60.00,Tuesday
213,146165859.21848038
6085,146165859.21848038
2,10, 1,10, 0, 5, 0.00,60.00,Tuesday
213,149195748.69507903
6085,149195748.69507888
2,10, 1,10, 0, 6, 0.00,60.00,Tuesday
213,168487186.7011982
6085,168487186.70119798
2,10, 1,10, 0, 7, 0.00,60.00,Tuesday
213,201661605.32674655
6085,201661605.32674634
2,10, 1,10, 0, 8, 0.00,60.00,Tuesday
213,207826827.5730477
6085,207826827.57304752
2,10, 1,10, 0, 9, 0.00,60.00,Tuesday
213,200210441.01173174
6085,200210441.0117315
2,10, 1,10, 0,10, 0.00,60.00,Tuesday
213,210218265.51220587
6085,210218265.5122057
2,10, 1,10, 0,11, 0.00,60.00,Tuesday
213,230894071.20790598
6085,230894071.20790583
2,10, 1,10, 0,12, 0.00,60.00,Tuesday
213,260214340.21516845
6085,260214340.21516824
2,10, 1,10, 0,13, 0.00,60.00,Tuesday
213,271732170.0372287
6085,271732170.0372286
2,10, 1,10, 0,14, 0.00,60.00,Tuesday
213,279599095.01280236
6085,279599095.0128022
2,10, 1,10, 0,15, 0.00,60.00,Tuesday
213,222644474.1745031
6085,222644474.17450294
2,10, 1,10, 0,16, 0.00,60.00,Tuesday
213,157768462.17884707
6085,157768462.17884684
2,10, 1,10, 0,17, 0.00,60.00,Tuesday
213,196153021.05985564
6085,196153021.0598554
2,10, 1,10, 0,18, 0.00,60.00,Tuesday
213,251759367.59837508
6085,251759367.59837556
2,10, 1,10, 0,19, 0.00,60.00,Tuesday
213,276653459.10599756
6085,276653459.105998
2,10, 1,10, 0,20, 0.00,60.00,Tuesday
213,316149671.6914236
6085,316149671.6914241
2,10, 1,10, 0,21, 0.00,60.00,Tuesday
213,319742525.9323254
6085,319742525.9323259
2,10, 1,10, 0,22, 0.00,60.00,Tuesday
213,289709981.7161653
6085,289709981.7161655
2,10, 1,10, 0,23, 0.00,60.00,Tuesday
213,242261228.37088937
6085,242261228.3708892
2,10, 1,10, 0,24, 0.00,60.00,Tuesday
213,201928798.91253462
6085,201928798.9125344
2,11, 1,11, 0, 1, 0.00,60.00,Wednesday
213,170179043.18295515
6085,170179043.1829551
2,11, 1,11, 0, 2, 0.00,60.00,Wednesday
213,159737389.2371895
6085,159737389.2371893
2,11, 1,11, 0, 3, 0.00,60.00,Wednesday
213,152148002.7962791
6085,152148002.79627886
2,11, 1,11, 0, 4, 0.00,60.00,Wednesday
213,148698228.49592263
6085,148698228.49592263
2,11, 1,11, 0, 5, 0.00,60.00,Wednesday
213,152764838.57957995
6085,152764838.57957977
2,11, 1,11, 0, 6, 0.00,60.00,Wednesday
213,170635840.49321127
6085,170635840.49321112
2,11, 1,11, 0, 7, 0.00,60.00,Wednesday
213,208263256.87302518
6085,208263256.873025
2,11, 1,11, 0, 8, 0.00,60.00,Wednesday
213,218879642.67446062
6085,218879642.67446047
2,11, 1,11, 0, 9, 0.00,60.00,Wednesday
213,198610749.75871697
6085,198610749.7587167
2,11, 1,11, 0,10, 0.00,60.00,Wednesday
213,190198744.5529754
6085,190198744.55297518
2,11, 1,11, 0,11, 0.00,60.00,Wednesday
213,185123968.3440157
6085,185123968.34401548
2,11, 1,11, 0,12, 0.00,60.00,Wednesday
213,184606235.0636793
6085,184606235.06367907
2,11, 1,11, 0,13, 0.00,60.00,Wednesday
213,182481651.1421434
6085,182481651.1421432
2,11, 1,11, 0,14, 0.00,60.00,Wednesday
213,182149356.80521357
6085,182149356.80521336
2,11, 1,11, 0,15, 0.00,60.00,Wednesday
213,172746706.11950764
6085,172746706.11950746
2,11, 1,11, 0,16, 0.00,60.00,Wednesday
213,178187916.75866187
6085,178187916.7586617
2,11, 1,11, 0,17, 0.00,60.00,Wednesday
213,219253104.08666462
6085,219253104.08666444
2,11, 1,11, 0,18, 0.00,60.00,Wednesday
213,278838369.36723804
6085,278838369.3672385
2,11, 1,11, 0,19, 0.00,60.00,Wednesday
213,310381135.36219406
6085,310381135.3621946
2,11, 1,11, 0,20, 0.00,60.00,Wednesday
213,294504852.0813025
6085,294504852.08130306
2,11, 1,11, 0,21, 0.00,60.00,Wednesday
213,286286167.3693129
6085,286286167.36931336
2,11, 1,11, 0,22, 0.00,60.00,Wednesday
213,263037737.48835233
6085,263037737.48835248
2,11, 1,11, 0,23, 0.00,60.00,Wednesday
213,219884144.18226135
6085,219884144.18226117
2,11, 1,11, 0,24, 0.00,60.00,Wednesday
213,181862280.0546481
6085,181862280.05464786
2,12, 1,12, 0, 1, 0.00,60.00,Thursday
213,155412469.7098916
6085,155412469.7098915
2,12, 1,12, 0, 2, 0.00,60.00,Thursday
213,148156015.26767275
6085,148156015.26767254
2,12, 1,12, 0, 3, 0.00,60.00,Thursday
213,145270073.95228863
6085,145270073.95228857
2,12, 1,12, 0, 4, 0.00,60.00,Thursday
213,144096547.81793228
6085,144096547.81793228
2,12, 1,12, 0, 5, 0.00,60.00,Thursday
213,147369081.87587613
6085,147369081.87587595
2,12, 1,12, 0, 6, 0.00,60.00,Thursday
213,166509436.02935362
6085,166509436.02935338
2,12, 1,12, 0, 7, 0.00,60.00,Thursday
213,198673041.4461257
6085,198673041.4461255
2,12, 1,12, 0, 8, 0.00,60.00,Thursday
213,204442007.2906855
6085,204442007.2906853
2,12, 1,12, 0, 9, 0.00,60.00,Thursday
213,191285356.55243596
6085,191285356.5524357
2,12, 1,12, 0,10, 0.00,60.00,Thursday
213,181838542.79877374
6085,181838542.79877353
2,12, 1,12, 0,11, 0.00,60.00,Thursday
213,172518884.06758964
6085,172518884.06758946
2,12, 1,12, 0,12, 0.00,60.00,Thursday
213,174649564.77778903
6085,174649564.77778882
2,12, 1,12, 0,13, 0.00,60.00,Thursday
213,172027319.56573078
6085,172027319.56573057
2,12, 1,12, 0,14, 0.00,60.00,Thursday
213,169799842.85433587
6085,169799842.85433567
2,12, 1,12, 0,15, 0.00,60.00,Thursday
213,164469756.62227264
6085,164469756.62227243
2,12, 1,12, 0,16, 0.00,60.00,Thursday
213,172519172.3859479
6085,172519172.38594767
2,12, 1,12, 0,17, 0.00,60.00,Thursday
213,212046069.03970408
6085,212046069.03970397
2,12, 1,12, 0,18, 0.00,60.00,Thursday
213,270428476.33754826
6085,270428476.33754873
2,12, 1,12, 0,19, 0.00,60.00,Thursday
213,300836768.2509265
6085,300836768.250927
2,12, 1,12, 0,20, 0.00,60.00,Thursday
213,287149770.8557734
6085,287149770.8557739
2,12, 1,12, 0,21, 0.00,60.00,Thursday
213,277550535.4421118
6085,277550535.44211227
2,12, 1,12, 0,22, 0.00,60.00,Thursday
213,255433576.4678123
6085,255433576.46781245
2,12, 1,12, 0,23, 0.00,60.00,Thursday
213,215726592.26832956
6085,215726592.26832938
2,12, 1,12, 0,24, 0.00,60.00,Thursday
213,179787756.78888527
6085,179787756.78888506
2,13, 1,13, 0, 1, 0.00,60.00,Friday
213,155889383.01559016
6085,155889383.01559013
2,13, 1,13, 0, 2, 0.00,60.00,Friday
213,149537663.17793524
6085,149537663.17793503
2,13, 1,13, 0, 3, 0.00,60.00,Friday
213,147022191.57219553
6085,147022191.5721954
2,13, 1,13, 0, 4, 0.00,60.00,Friday
213,145584840.14729026
6085,145584840.14729026
2,13, 1,13, 0, 5, 0.00,60.00,Friday
213,148285848.6085656
6085,148285848.60856542
2,13, 1,13, 0, 6, 0.00,60.00,Friday
213,167338993.83083406
6085,167338993.83083385
2,13, 1,13, 0, 7, 0.00,60.00,Friday
213,198249403.6011345
6085,198249403.60113433
2,13, 1,13, 0, 8, 0.00,60.00,Friday
213,202759106.51819122
6085,202759106.518191
2,13, 1,13, 0, 9, 0.00,60.00,Friday
213,191410804.96321446
6085,191410804.96321425
2,13, 1,13, 0,10, 0.00,60.00,Friday
213,181691584.32324696
6085,181691584.32324672
2,13, 1,13, 0,11, 0.00,60.00,Friday
213,171127476.4737194
6085,171127476.4737192
2,13, 1,13, 0,12, 0.00,60.00,Friday
213,172211191.30367172
6085,172211191.30367148
2,13, 1,13, 0,13, 0.00,60.00,Friday
213,168367801.10135412
6085,168367801.10135394
2,13, 1,13, 0,14, 0.00,60.00,Friday
213,164657672.46350554
6085,164657672.46350536
2,13, 1,13, 0,15, 0.00,60.00,Friday
213,162263672.24343628
6085,162263672.2434361
2,13, 1,13, 0,16, 0.00,60.00,Friday
213,171583924.13699448
6085,171583924.1369943
2,13, 1,13, 0,17, 0.00,60.00,Friday
213,209614000.28014317
6085,209614000.28014296
2,13, 1,13, 0,18, 0.00,60.00,Friday
213,267589518.78218848
6085,267589518.78218907
2,13, 1,13, 0,19, 0.00,60.00,Friday
213,296892684.7141772
6085,296892684.7141776
2,13, 1,13, 0,20, 0.00,60.00,Friday
213,282020815.6076385
6085,282020815.6076389
2,13, 1,13, 0,21, 0.00,60.00,Friday
213,273593552.7995358
6085,273593552.7995363
2,13, 1,13, 0,22, 0.00,60.00,Friday
213,251839915.48538786
6085,251839915.48538798
2,13, 1,13, 0,23, 0.00,60.00,Friday
213,212156214.80171728
6085,212156214.8017171
2,13, 1,13, 0,24, 0.00,60.00,Friday
213,179060791.7062525
6085,179060791.70625222
2,14, 1,14, 0, 1, 0.00,60.00,Saturday
213,155973946.14141572
6085,155973946.14141563
2,14, 1,14, 0, 2, 0.00,60.00,Saturday
213,149797971.82857805
6085,149797971.82857782
2,14, 1,14, 0, 3, 0.00,60.00,Saturday
213,147103142.5936792
6085,147103142.59367913
2,14, 1,14, 0, 4, 0.00,60.00,Saturday
213,145695467.77715907
6085,145695467.77715904
2,14, 1,14, 0, 5, 0.00,60.00,Saturday
213,148660354.43065268
6085,148660354.4306525
2,14, 1,14, 0, 6, 0.00,60.00,Saturday
213,167531117.48265302
6085,167531117.48265284
2,14, 1,14, 0, 7, 0.00,60.00,Saturday
213,198389567.66719952
6085,198389567.66719934
2,14, 1,14, 0, 8, 0.00,60.00,Saturday
213,201786829.6992067
6085,201786829.69920653
2,14, 1,14, 0, 9, 0.00,60.00,Saturday
213,188373831.5415431
6085,188373831.5415429
2,14, 1,14, 0,10, 0.00,60.00,Saturday
213,178679552.44239235
6085,178679552.44239208
2,14, 1,14, 0,11, 0.00,60.00,Saturday
213,168768743.289785
6085,168768743.2897848
2,14, 1,14, 0,12, 0.00,60.00,Saturday
213,170070821.39268064
6085,170070821.39268044
2,14, 1,14, 0,13, 0.00,60.00,Saturday
213,168193855.75047046
6085,168193855.75047022
2,14, 1,14, 0,14, 0.00,60.00,Saturday
213,161777332.7488756
6085,161777332.74887535
2,14, 1,14, 0,15, 0.00,60.00,Saturday
213,161558703.9756995
6085,161558703.9756993
2,14, 1,14, 0,16, 0.00,60.00,Saturday
213,170163056.33465227
6085,170163056.3346521
2,14, 1,14, 0,17, 0.00,60.00,Saturday
213,207712205.28427064
6085,207712205.28427047
2,14, 1,14, 0,18, 0.00,60.00,Saturday
213,267022338.34960452
6085,267022338.349605
2,14, 1,14, 0,19, 0.00,60.00,Saturday
213,292422458.4733359
6085,292422458.47333646
2,14, 1,14, 0,20, 0.00,60.00,Saturday
213,277941879.02616334
6085,277941879.0261638
2,14, 1,14, 0,21, 0.00,60.00,Saturday
213,270624049.21256006
6085,270624049.2125605
2,14, 1,14, 0,22, 0.00,60.00,Saturday
213,249359885.37509137
6085,249359885.3750915
2,14, 1,14, 0,23, 0.00,60.00,Saturday
213,210637994.700477
6085,210637994.70047683
2,14, 1,14, 0,24, 0.00,60.00,Saturday
213,179097181.91176546
6085,179097181.91176522
2,15, 1,15, 0, 1, 0.00,60.00,Sunday
213,155750484.81785664
6085,155750484.81785658
2,15, 1,15, 0, 2, 0.00,60.00,Sunday
213,149372042.52615553
6085,149372042.52615532
2,15, 1,15, 0, 3, 0.00,60.00,Sunday
213,146729559.4251977
6085,146729559.42519766
2,15, 1,15, 0, 4, 0.00,60.00,Sunday
213,145320610.26672402
6085,145320610.266724
2,15, 1,15, 0, 5, 0.00,60.00,Sunday
213,148075928.83874375
6085,148075928.83874357
2,15, 1,15, 0, 6, 0.00,60.00,Sunday
213,166497354.94066656
6085,166497354.94066635
2,15, 1,15, 0, 7, 0.00,60.00,Sunday
213,197403036.73451203
6085,197403036.7345118
2,15, 1,15, 0, 8, 0.00,60.00,Sunday
213,201438905.9020831
6085,201438905.90208292
2,15, 1,15, 0, 9, 0.00,60.00,Sunday
213,188777836.6741866
6085,188777836.67418638
2,15, 1,15, 0,10, 0.00,60.00,Sunday
213,179691414.20445377
6085,179691414.20445353
2,15, 1,15, 0,11, 0.00,60.00,Sunday
213,169558385.056192
6085,169558385.0561918
2,15, 1,15, 0,12, 0.00,60.00,Sunday
213,171099638.5283122
6085,171099638.528312
2,15, 1,15, 0,13, 0.00,60.00,Sunday
213,169243471.33950794
6085,169243471.33950776
2,15, 1,15, 0,14, 0.00,60.00,Sunday
213,164310615.36509266
6085,164310615.36509246
2,15, 1,15, 0,15, 0.00,60.00,Sunday
213,162773400.3095033
6085,162773400.30950308
2,15, 1,15, 0,16, 0.00,60.00,Sunday
213,170418092.8894811
6085,170418092.88948086
2,15, 1,15, 0,17, 0.00,60.00,Sunday
213,207351772.7948616
6085,207351772.79486144
2,15, 1,15, 0,18, 0.00,60.00,Sunday