Program Version,EnergyPlus, Version 26.1.0-6f2e40d102, YMD=2026.04.14 20:33
1,5,Environment Title[],Latitude[deg],Longitude[deg],Time Zone[],Elevation[m]
2,8,Day of Simulation[],Month[],Day of Month[],DST Indicator[1=yes 0=no],Hour[],StartMinute[],EndMinute[],DayType
3,5,Cumulative Day of Simulation[],Month[],Day of Month[],DST Indicator[1=yes 0=no],DayType  ! When Daily Meters Requested
4,2,Cumulative Days of Simulation[],Month[]  ! When Monthly Meters Requested
5,1,Cumulative Days of Simulation[] ! When Run Period Meters Requested
6,1,Calendar Year of Simulation[] ! When Annual Meters Requested
213,1,Electricity:Facility [J] !Hourly
5925,1,ElectricityNet:Facility [J] !Hourly
End of Data Dictionary
1,RUNPERIOD 1,  28.11, 112.79,   8.00, 120.00
2,1, 1, 1, 0, 1, 0.00,60.00,Sunday
213,82055639.84734036
5925,82055639.84734035
2,1, 1, 1, 0, 2, 0.00,60.00,Sunday
213,85931086.44391188
5925,85931086.44391188
2,1, 1, 1, 0, 3, 0.00,60.00,Sunday
213,90776410.41061325
5925,90776410.41061325
2,1, 1, 1, 0, 4, 0.00,60.00,Sunday
213,84066804.97849585
5925,84066804.97849584
2,1, 1, 1, 0, 5, 0.00,60.00,Sunday
213,94011920.00723937
5925,94011920.00723937
2,1, 1, 1, 0, 6, 0.00,60.00,Sunday
213,120661384.98330756
5925,120661384.98330757
2,1, 1, 1, 0, 7, 0.00,60.00,Sunday
213,186034937.91761258
5925,186034937.91761255
2,1, 1, 1, 0, 8, 0.00,60.00,Sunday
213,190133870.15690857
5925,190133870.15690857
2,1, 1, 1, 0, 9, 0.00,60.00,Sunday
213,169835860.97392553
5925,169835860.97392547
2,1, 1, 1, 0,10, 0.00,60.00,Sunday
213,149919965.38093123
5925,149919965.3809312
2,1, 1, 1, 0,11, 0.00,60.00,Sunday
213,150779967.07794717
5925,150779967.0779471
2,1, 1, 1, 0,12, 0.00,60.00,Sunday
213,132680245.29293624
5925,132680245.29293624
2,1, 1, 1, 0,13, 0.00,60.00,Sunday
213,121666327.8352401
5925,121666327.83524007
2,1, 1, 1, 0,14, 0.00,60.00,Sunday
213,126865113.93628989
5925,126865113.93628988
2,1, 1, 1, 0,15, 0.00,60.00,Sunday
213,106429077.78689632
5925,106429077.78689629
2,1, 1, 1, 0,16, 0.00,60.00,Sunday
213,132341885.35716741
5925,132341885.3571674
2,1, 1, 1, 0,17, 0.00,60.00,Sunday
213,151982479.85797665
5925,151982479.85797665
2,1, 1, 1, 0,18, 0.00,60.00,Sunday
213,192581229.6005653
5925,192581229.60056567
2,1, 1, 1, 0,19, 0.00,60.00,Sunday
213,230550298.1202746
5925,230550298.12027484
2,1, 1, 1, 0,20, 0.00,60.00,Sunday
213,214093986.2107623
5925,214093986.2107626
2,1, 1, 1, 0,21, 0.00,60.00,Sunday
213,217175519.8916062
5925,217175519.89160648
2,1, 1, 1, 0,22, 0.00,60.00,Sunday
213,187994178.05452806
5925,187994178.0545282
2,1, 1, 1, 0,23, 0.00,60.00,Sunday
213,158921183.16607088
5925,158921183.16607088
2,1, 1, 1, 0,24, 0.00,60.00,Sunday
213,121016256.47197321
5925,121016256.47197323
2,2, 1, 2, 0, 1, 0.00,60.00,Holiday
213,89304861.04172331
5925,89304861.04172331
2,2, 1, 2, 0, 2, 0.00,60.00,Holiday
213,92353575.01796398
5925,92353575.01796399
2,2, 1, 2, 0, 3, 0.00,60.00,Holiday
213,83607167.32244469
5925,83607167.32244469
2,2, 1, 2, 0, 4, 0.00,60.00,Holiday
213,78715100.72613108
5925,78715100.72613107
2,2, 1, 2, 0, 5, 0.00,60.00,Holiday
213,94328340.49539906
5925,94328340.49539909
2,2, 1, 2, 0, 6, 0.00,60.00,Holiday
213,120991295.55511679
5925,120991295.55511677
2,2, 1, 2, 0, 7, 0.00,60.00,Holiday
213,186555895.84410948
5925,186555895.84410948
2,2, 1, 2, 0, 8, 0.00,60.00,Holiday
213,190740955.42051518
5925,190740955.4205152
2,2, 1, 2, 0, 9, 0.00,60.00,Holiday
213,170350173.22342843
5925,170350173.22342843
2,2, 1, 2, 0,10, 0.00,60.00,Holiday
213,150486269.8813722
5925,150486269.8813722
2,2, 1, 2, 0,11, 0.00,60.00,Holiday
213,151569471.39347193
5925,151569471.39347196
2,2, 1, 2, 0,12, 0.00,60.00,Holiday
213,137998060.70365113
5925,137998060.70365113
2,2, 1, 2, 0,13, 0.00,60.00,Holiday
213,129665055.44693723
5925,129665055.44693723
2,2, 1, 2, 0,14, 0.00,60.00,Holiday
213,114205028.36862199
5925,114205028.36862198
2,2, 1, 2, 0,15, 0.00,60.00,Holiday
213,119404358.71281455
5925,119404358.71281454
2,2, 1, 2, 0,16, 0.00,60.00,Holiday
213,118343992.74201894
5925,118343992.74201898
2,2, 1, 2, 0,17, 0.00,60.00,Holiday
213,159477652.57449624
5925,159477652.5744963
2,2, 1, 2, 0,18, 0.00,60.00,Holiday
213,189555174.70768666
5925,189555174.70768693
2,2, 1, 2, 0,19, 0.00,60.00,Holiday
213,230918119.58967367
5925,230918119.58967394
2,2, 1, 2, 0,20, 0.00,60.00,Holiday
213,220667689.25914335
5925,220667689.25914362
2,2, 1, 2, 0,21, 0.00,60.00,Holiday
213,207366330.33748153
5925,207366330.3374819
2,2, 1, 2, 0,22, 0.00,60.00,Holiday
213,185138024.18456966
5925,185138024.18456984
2,2, 1, 2, 0,23, 0.00,60.00,Holiday
213,159302909.33036315
5925,159302909.33036312
2,2, 1, 2, 0,24, 0.00,60.00,Holiday
213,121404476.19148552
5925,121404476.19148551
2,3, 1, 3, 0, 1, 0.00,60.00,Tuesday
213,102809588.17182422
5925,102809588.17182419
2,3, 1, 3, 0, 2, 0.00,60.00,Tuesday
213,86699440.65282175
5925,86699440.65282176
2,3, 1, 3, 0, 3, 0.00,60.00,Tuesday
213,78440194.06164742
5925,78440194.0616474
2,3, 1, 3, 0, 4, 0.00,60.00,Tuesday
213,90912746.34865025
5925,90912746.34865025
2,3, 1, 3, 0, 5, 0.00,60.00,Tuesday
213,88717262.9454441
5925,88717262.9454441
2,3, 1, 3, 0, 6, 0.00,60.00,Tuesday
213,122047980.23228152
5925,122047980.23228148
2,3, 1, 3, 0, 7, 0.00,60.00,Tuesday
213,187475726.32780662
5925,187475726.3278066
2,3, 1, 3, 0, 8, 0.00,60.00,Tuesday
213,183865161.83398288
5925,183865161.83398288
2,3, 1, 3, 0, 9, 0.00,60.00,Tuesday
213,182706975.07312512
5925,182706975.07312515
2,3, 1, 3, 0,10, 0.00,60.00,Tuesday
213,161137497.09001032
5925,161137497.09001037
2,3, 1, 3, 0,11, 0.00,60.00,Tuesday
213,150184754.07369685
5925,150184754.07369685
2,3, 1, 3, 0,12, 0.00,60.00,Tuesday
213,135252151.28864402
5925,135252151.288644
2,3, 1, 3, 0,13, 0.00,60.00,Tuesday
213,133705898.48055996
5925,133705898.48055997
2,3, 1, 3, 0,14, 0.00,60.00,Tuesday
213,118734151.32862273
5925,118734151.3286227
2,3, 1, 3, 0,15, 0.00,60.00,Tuesday
213,131365970.27199401
5925,131365970.27199401
2,3, 1, 3, 0,16, 0.00,60.00,Tuesday
213,136444640.41345793
5925,136444640.4134579
2,3, 1, 3, 0,17, 0.00,60.00,Tuesday
213,143556229.55762404
5925,143556229.5576241
2,3, 1, 3, 0,18, 0.00,60.00,Tuesday
213,204187561.4709418
5925,204187561.47094214
2,3, 1, 3, 0,19, 0.00,60.00,Tuesday
213,217821076.21497288
5925,217821076.21497318
2,3, 1, 3, 0,20, 0.00,60.00,Tuesday
213,228561884.59432283
5925,228561884.5943231
2,3, 1, 3, 0,21, 0.00,60.00,Tuesday
213,204418172.96302357
5925,204418172.96302384
2,3, 1, 3, 0,22, 0.00,60.00,Tuesday
213,188636061.0973447
5925,188636061.09734488
2,3, 1, 3, 0,23, 0.00,60.00,Tuesday
213,159507092.64904895
5925,159507092.64904895
2,3, 1, 3, 0,24, 0.00,60.00,Tuesday
213,120974194.77870347
5925,120974194.77870347
2,4, 1, 4, 0, 1, 0.00,60.00,Wednesday
213,95392116.5872508
5925,95392116.5872508
2,4, 1, 4, 0, 2, 0.00,60.00,Wednesday
213,86776295.50588787
5925,86776295.50588787
2,4, 1, 4, 0, 3, 0.00,60.00,Wednesday
213,92198062.46430038
5925,92198062.46430038
2,4, 1, 4, 0, 4, 0.00,60.00,Wednesday
213,85462700.37917995
5925,85462700.37917995
2,4, 1, 4, 0, 5, 0.00,60.00,Wednesday
213,81914334.60988455
5925,81914334.60988455
2,4, 1, 4, 0, 6, 0.00,60.00,Wednesday
213,121745026.43895541
5925,121745026.43895541
2,4, 1, 4, 0, 7, 0.00,60.00,Wednesday
213,187143209.69148004
5925,187143209.69148004
2,4, 1, 4, 0, 8, 0.00,60.00,Wednesday
213,191654838.99909976
5925,191654838.99909976
2,4, 1, 4, 0, 9, 0.00,60.00,Wednesday
213,175180071.33259526
5925,175180071.3325953
2,4, 1, 4, 0,10, 0.00,60.00,Wednesday
213,168617083.9428934
5925,168617083.9428934
2,4, 1, 4, 0,11, 0.00,60.00,Wednesday
213,141973178.46794334
5925,141973178.46794337
2,4, 1, 4, 0,12, 0.00,60.00,Wednesday
213,141071993.00575507
5925,141071993.00575507
2,4, 1, 4, 0,13, 0.00,60.00,Wednesday
213,131810918.93895906
5925,131810918.93895903
2,4, 1, 4, 0,14, 0.00,60.00,Wednesday
213,130139438.64181066
5925,130139438.64181066
2,4, 1, 4, 0,15, 0.00,60.00,Wednesday
213,109830560.04739422
5925,109830560.04739425
2,4, 1, 4, 0,16, 0.00,60.00,Wednesday
213,135492485.82957387
5925,135492485.82957387
2,4, 1, 4, 0,17, 0.00,60.00,Wednesday
213,162853588.43254983
5925,162853588.4325498
2,4, 1, 4, 0,18, 0.00,60.00,Wednesday
213,189990729.38994238
5925,189990729.3899427
2,4, 1, 4, 0,19, 0.00,60.00,Wednesday
213,230808556.0170673
5925,230808556.01706767
2,4, 1, 4, 0,20, 0.00,60.00,Wednesday
213,206375684.90321466
5925,206375684.903215
2,4, 1, 4, 0,21, 0.00,60.00,Wednesday
213,223425052.2689624
5925,223425052.26896277
2,4, 1, 4, 0,22, 0.00,60.00,Wednesday
213,182537780.19299087
5925,182537780.19299108
2,4, 1, 4, 0,23, 0.00,60.00,Wednesday
213,145424934.42561263
5925,145424934.42561263
2,4, 1, 4, 0,24, 0.00,60.00,Wednesday
213,134083066.12559538
5925,134083066.12559533
2,5, 1, 5, 0, 1, 0.00,60.00,Thursday
213,89191179.09181319
5925,89191179.09181318
2,5, 1, 5, 0, 2, 0.00,60.00,Thursday
213,99286678.18261072
5925,99286678.1826107
2,5, 1, 5, 0, 3, 0.00,60.00,Thursday
213,78341531.79426688
5925,78341531.79426688
2,5, 1, 5, 0, 4, 0.00,60.00,Thursday
213,77659450.51425827
5925,77659450.51425825
2,5, 1, 5, 0, 5, 0.00,60.00,Thursday
213,101203858.66683373
5925,101203858.66683371
2,5, 1, 5, 0, 6, 0.00,60.00,Thursday
213,121451626.66572878
5925,121451626.66572876
2,5, 1, 5, 0, 7, 0.00,60.00,Thursday
213,187153034.9167853
5925,187153034.9167853
2,5, 1, 5, 0, 8, 0.00,60.00,Thursday
213,183694961.09918958
5925,183694961.09918955
2,5, 1, 5, 0, 9, 0.00,60.00,Thursday
213,181705465.3701463
5925,181705465.37014633
2,5, 1, 5, 0,10, 0.00,60.00,Thursday
213,145191273.67624196
5925,145191273.67624196
2,5, 1, 5, 0,11, 0.00,60.00,Thursday
213,160314408.19734937
5925,160314408.1973493
2,5, 1, 5, 0,12, 0.00,60.00,Thursday
213,131221629.47290593
5925,131221629.47290592
2,5, 1, 5, 0,13, 0.00,60.00,Thursday
213,123372478.3022479
5925,123372478.30224791
2,5, 1, 5, 0,14, 0.00,60.00,Thursday
213,120159307.15161373
5925,120159307.15161371
2,5, 1, 5, 0,15, 0.00,60.00,Thursday
213,126373872.77246358
5925,126373872.77246356
2,5, 1, 5, 0,16, 0.00,60.00,Thursday
213,118049355.88709772
5925,118049355.8870977
2,5, 1, 5, 0,17, 0.00,60.00,Thursday
213,152227285.05539846
5925,152227285.05539846
2,5, 1, 5, 0,18, 0.00,60.00,Thursday
213,187129962.1875935
5925,187129962.18759382
2,5, 1, 5, 0,19, 0.00,60.00,Thursday
213,228856149.8920477
5925,228856149.89204806
2,5, 1, 5, 0,20, 0.00,60.00,Thursday
213,226238001.13371706
5925,226238001.13371742
2,5, 1, 5, 0,21, 0.00,60.00,Thursday
213,202307261.2076999
5925,202307261.20770022
2,5, 1, 5, 0,22, 0.00,60.00,Thursday
213,186698449.98570943
5925,186698449.9857096
2,5, 1, 5, 0,23, 0.00,60.00,Thursday
213,157639628.82999298
5925,157639628.82999295
2,5, 1, 5, 0,24, 0.00,60.00,Thursday
213,119065539.46383786
5925,119065539.46383786
2,6, 1, 6, 0, 1, 0.00,60.00,Friday
213,91847329.64490597
5925,91847329.64490594
2,6, 1, 6, 0, 2, 0.00,60.00,Friday
213,86545010.80328459
5925,86545010.80328459
2,6, 1, 6, 0, 3, 0.00,60.00,Friday
213,83750002.96836765
5925,83750002.96836764
2,6, 1, 6, 0, 4, 0.00,60.00,Friday
213,89304775.74666753
5925,89304775.74666753
2,6, 1, 6, 0, 5, 0.00,60.00,Friday
213,82827354.66165653
5925,82827354.66165653
2,6, 1, 6, 0, 6, 0.00,60.00,Friday
213,117140583.99118653
5925,117140583.99118654
2,6, 1, 6, 0, 7, 0.00,60.00,Friday
213,189682399.11998162
5925,189682399.1199816
2,6, 1, 6, 0, 8, 0.00,60.00,Friday
213,185756272.53387874
5925,185756272.5338787
2,6, 1, 6, 0, 9, 0.00,60.00,Friday
213,172297844.175093
5925,172297844.175093
2,6, 1, 6, 0,10, 0.00,60.00,Friday
213,164387305.71948093
5925,164387305.71948093
2,6, 1, 6, 0,11, 0.00,60.00,Friday
213,137631638.23638892
5925,137631638.2363889
2,6, 1, 6, 0,12, 0.00,60.00,Friday
213,139005941.2134389
5925,139005941.2134389
2,6, 1, 6, 0,13, 0.00,60.00,Friday
213,133513842.65105605
5925,133513842.65105605
2,6, 1, 6, 0,14, 0.00,60.00,Friday
213,121413055.5476083
5925,121413055.54760829
2,6, 1, 6, 0,15, 0.00,60.00,Friday
213,136294835.69473726
5925,136294835.69473726
2,6, 1, 6, 0,16, 0.00,60.00,Friday
213,133330339.97954142
5925,133330339.97954138
2,6, 1, 6, 0,17, 0.00,60.00,Friday
213,150107104.65387946
5925,150107104.65387946
2,6, 1, 6, 0,18, 0.00,60.00,Friday
213,199278742.046168
5925,199278742.04616836
2,6, 1, 6, 0,19, 0.00,60.00,Friday
213,213734660.84907064
5925,213734660.84907097
2,6, 1, 6, 0,20, 0.00,60.00,Friday
213,221066540.15399152
5925,221066540.15399188
2,6, 1, 6, 0,21, 0.00,60.00,Friday
213,204960536.10991427
5925,204960536.1099146
2,6, 1, 6, 0,22, 0.00,60.00,Friday
213,178389482.29367137
5925,178389482.2936715
2,6, 1, 6, 0,23, 0.00,60.00,Friday
213,160603686.61595824
5925,160603686.61595824
2,6, 1, 6, 0,24, 0.00,60.00,Friday
213,118668960.61341333
5925,118668960.6134133
2,7, 1, 7, 0, 1, 0.00,60.00,Saturday
213,96996314.64629273
5925,96996314.6462927
2,7, 1, 7, 0, 2, 0.00,60.00,Saturday
213,85321338.91575795
5925,85321338.91575795
2,7, 1, 7, 0, 3, 0.00,60.00,Saturday
213,90207248.52587323
5925,90207248.52587323
2,7, 1, 7, 0, 4, 0.00,60.00,Saturday
213,80583244.37920211
5925,80583244.3792021
2,7, 1, 7, 0, 5, 0.00,60.00,Saturday
213,84432947.64423749
5925,84432947.64423749
2,7, 1, 7, 0, 6, 0.00,60.00,Saturday
213,127988438.97880453
5925,127988438.97880451
2,7, 1, 7, 0, 7, 0.00,60.00,Saturday
213,179293540.561997
5925,179293540.56199694
2,7, 1, 7, 0, 8, 0.00,60.00,Saturday
213,192456810.5640288
5925,192456810.56402874
2,7, 1, 7, 0, 9, 0.00,60.00,Saturday
213,167267818.17924154
5925,167267818.1792415
2,7, 1, 7, 0,10, 0.00,60.00,Saturday
213,160936962.31550506
5925,160936962.31550503
2,7, 1, 7, 0,11, 0.00,60.00,Saturday
213,135673399.91878286
5925,135673399.91878286
2,7, 1, 7, 0,12, 0.00,60.00,Saturday
213,134346606.00970548
5925,134346606.00970545
2,7, 1, 7, 0,13, 0.00,60.00,Saturday
213,123253008.41051517
5925,123253008.41051516
2,7, 1, 7, 0,14, 0.00,60.00,Saturday
213,122361305.3463114
5925,122361305.34631136
2,7, 1, 7, 0,15, 0.00,60.00,Saturday
213,102396142.00398128
5925,102396142.00398126
2,7, 1, 7, 0,16, 0.00,60.00,Saturday
213,127927012.43744017
5925,127927012.43744017
2,7, 1, 7, 0,17, 0.00,60.00,Saturday
213,151955049.1208888
5925,151955049.12088877
2,7, 1, 7, 0,18, 0.00,60.00,Saturday
213,186235047.4238099
5925,186235047.42381018
2,7, 1, 7, 0,19, 0.00,60.00,Saturday
213,227561217.26223558
5925,227561217.26223588
2,7, 1, 7, 0,20, 0.00,60.00,Saturday
213,208289819.46842408
5925,208289819.4684244
2,7, 1, 7, 0,21, 0.00,60.00,Saturday
213,218341885.22454536
5925,218341885.22454566
2,7, 1, 7, 0,22, 0.00,60.00,Saturday
213,182178965.4813007
5925,182178965.48130083
2,7, 1, 7, 0,23, 0.00,60.00,Saturday
213,150683541.0189813
5925,150683541.01898125
2,7, 1, 7, 0,24, 0.00,60.00,Saturday
213,123401163.84707081
5925,123401163.84707077
2,8, 1, 8, 0, 1, 0.00,60.00,Sunday
213,88271708.09114543
5925,88271708.0911454
2,8, 1, 8, 0, 2, 0.00,60.00,Sunday
213,90828018.91661084
5925,90828018.91661084
2,8, 1, 8, 0, 3, 0.00,60.00,Sunday
213,83817639.08685859
5925,83817639.08685859
2,8, 1, 8, 0, 4, 0.00,60.00,Sunday
213,76456997.54837523
5925,76456997.54837522
2,8, 1, 8, 0, 5, 0.00,60.00,Sunday
213,98791292.72019997
5925,98791292.72019996
2,8, 1, 8, 0, 6, 0.00,60.00,Sunday
213,118582107.97779536
5925,118582107.97779535
2,8, 1, 8, 0, 7, 0.00,60.00,Sunday
213,188073237.66479546
5925,188073237.6647955
2,8, 1, 8, 0, 8, 0.00,60.00,Sunday
213,186795423.06704265
5925,186795423.06704262
2,8, 1, 8, 0, 9, 0.00,60.00,Sunday
213,170329440.1913206
5925,170329440.19132057
2,8, 1, 8, 0,10, 0.00,60.00,Sunday
213,153271082.0534895
5925,153271082.05348948
2,8, 1, 8, 0,11, 0.00,60.00,Sunday
213,142702837.8361413
5925,142702837.83614123
2,8, 1, 8, 0,12, 0.00,60.00,Sunday
213,134210799.14768362
5925,134210799.14768362
2,8, 1, 8, 0,13, 0.00,60.00,Sunday
213,128176800.52718441
5925,128176800.52718438
2,8, 1, 8, 0,14, 0.00,60.00,Sunday
213,127546350.6824706
5925,127546350.68247057
2,8, 1, 8, 0,15, 0.00,60.00,Sunday
213,129978600.03871837
5925,129978600.03871837
2,8, 1, 8, 0,16, 0.00,60.00,Sunday
213,130241956.12505704
5925,130241956.12505701
2,8, 1, 8, 0,17, 0.00,60.00,Sunday
213,154872290.49155965
5925,154872290.49155965
2,8, 1, 8, 0,18, 0.00,60.00,Sunday
213,197419677.89118144
5925,197419677.89118177
2,8, 1, 8, 0,19, 0.00,60.00,Sunday
213,216057276.57793137
5925,216057276.57793173
2,8, 1, 8, 0,20, 0.00,60.00,Sunday
213,218699655.76947775
5925,218699655.76947808
2,8, 1, 8, 0,21, 0.00,60.00,Sunday
213,206850965.16323414
5925,206850965.16323447
2,8, 1, 8, 0,22, 0.00,60.00,Sunday
213,181875169.15804997
5925,181875169.15805012
2,8, 1, 8, 0,23, 0.00,60.00,Sunday
213,158448448.48173806
5925,158448448.48173803
2,8, 1, 8, 0,24, 0.00,60.00,Sunday
213,118227467.38724706
5925,118227467.38724703
2,9, 1, 9, 0, 1, 0.00,60.00,Monday
213,91950593.86363678
5925,91950593.86363675
2,9, 1, 9, 0, 2, 0.00,60.00,Monday
213,87168732.27274765
5925,87168732.27274762
2,9, 1, 9, 0, 3, 0.00,60.00,Monday
213,86927428.76070674
5925,86927428.76070672
2,9, 1, 9, 0, 4, 0.00,60.00,Monday
213,79951067.35398497
5925,79951067.35398495
2,9, 1, 9, 0, 5, 0.00,60.00,Monday
213,89125669.2492782
5925,89125669.2492782
2,9, 1, 9, 0, 6, 0.00,60.00,Monday
213,120260983.44560036
5925,120260983.44560033
2,9, 1, 9, 0, 7, 0.00,60.00,Monday
213,186134196.64494017
5925,186134196.64494017
2,9, 1, 9, 0, 8, 0.00,60.00,Monday
213,185766146.6863309
5925,185766146.6863309
2,9, 1, 9, 0, 9, 0.00,60.00,Monday
213,177889311.62150994
5925,177889311.62150994
2,9, 1, 9, 0,10, 0.00,60.00,Monday
213,160051927.38949493
5925,160051927.3894949
2,9, 1, 9, 0,11, 0.00,60.00,Monday
213,142932816.6839725
5925,142932816.6839725
2,9, 1, 9, 0,12, 0.00,60.00,Monday
213,138218225.86320555
5925,138218225.86320555
2,9, 1, 9, 0,13, 0.00,60.00,Monday
213,150040780.20869723
5925,150040780.2086972
2,9, 1, 9, 0,14, 0.00,60.00,Monday
213,141844187.97223246
5925,141844187.97223243
2,9, 1, 9, 0,15, 0.00,60.00,Monday
213,139620840.7174552
5925,139620840.71745518
2,9, 1, 9, 0,16, 0.00,60.00,Monday
213,151487722.23807576
5925,151487722.23807573
2,9, 1, 9, 0,17, 0.00,60.00,Monday
213,168051833.3118284
5925,168051833.31182837
2,9, 1, 9, 0,18, 0.00,60.00,Monday
213,197490095.91722727
5925,197490095.9172276
2,9, 1, 9, 0,19, 0.00,60.00,Monday
213,219098231.76688576
5925,219098231.76688603
2,9, 1, 9, 0,20, 0.00,60.00,Monday
213,216834440.3106177
5925,216834440.31061804
2,9, 1, 9, 0,21, 0.00,60.00,Monday
213,208018889.8588315
5925,208018889.85883176
2,9, 1, 9, 0,22, 0.00,60.00,Monday
213,185449886.50012562
5925,185449886.50012577
2,9, 1, 9, 0,23, 0.00,60.00,Monday
213,156446225.52354485
5925,156446225.52354485
2,9, 1, 9, 0,24, 0.00,60.00,Monday
213,118411434.4294319
5925,118411434.42943189
2,10, 1,10, 0, 1, 0.00,60.00,Tuesday
213,93142839.46631582
5925,93142839.4663158
2,10, 1,10, 0, 2, 0.00,60.00,Tuesday
213,84567204.34539223
5925,84567204.34539223
2,10, 1,10, 0, 3, 0.00,60.00,Tuesday
213,85814905.0751529
5925,85814905.0751529
2,10, 1,10, 0, 4, 0.00,60.00,Tuesday
213,79672196.95384607
5925,79672196.95384604
2,10, 1,10, 0, 5, 0.00,60.00,Tuesday
213,92206437.70956092
5925,92206437.70956089
2,10, 1,10, 0, 6, 0.00,60.00,Tuesday
213,119135506.89319052
5925,119135506.89319052
2,10, 1,10, 0, 7, 0.00,60.00,Tuesday
213,186864142.62098452
5925,186864142.62098446
2,10, 1,10, 0, 8, 0.00,60.00,Tuesday
213,184779457.71926877
5925,184779457.71926874
2,10, 1,10, 0, 9, 0.00,60.00,Tuesday
213,178213770.6567789
5925,178213770.65677887
2,10, 1,10, 0,10, 0.00,60.00,Tuesday
213,154973660.7713634
5925,154973660.77136338
2,10, 1,10, 0,11, 0.00,60.00,Tuesday
213,148963019.66617072
5925,148963019.6661707
2,10, 1,10, 0,12, 0.00,60.00,Tuesday
213,140737297.41645688
5925,140737297.41645685
2,10, 1,10, 0,13, 0.00,60.00,Tuesday
213,151377557.62407178
5925,151377557.62407178
2,10, 1,10, 0,14, 0.00,60.00,Tuesday
213,138940995.51044866
5925,138940995.5104486
2,10, 1,10, 0,15, 0.00,60.00,Tuesday
213,147421993.45946172
5925,147421993.4594617
2,10, 1,10, 0,16, 0.00,60.00,Tuesday
213,147090303.4820351
5925,147090303.4820351
2,10, 1,10, 0,17, 0.00,60.00,Tuesday
213,167394403.40442973
5925,167394403.40442967
2,10, 1,10, 0,18, 0.00,60.00,Tuesday
213,200806887.5108787
5925,200806887.51087904
2,10, 1,10, 0,19, 0.00,60.00,Tuesday
213,220164721.95691374
5925,220164721.95691407
2,10, 1,10, 0,20, 0.00,60.00,Tuesday
213,218567941.55301458
5925,218567941.5530149
2,10, 1,10, 0,21, 0.00,60.00,Tuesday
213,206766294.82148308
5925,206766294.82148337
2,10, 1,10, 0,22, 0.00,60.00,Tuesday
213,182582647.2011292
5925,182582647.20112932
2,10, 1,10, 0,23, 0.00,60.00,Tuesday
213,151331880.7472925
5925,151331880.74729246
2,10, 1,10, 0,24, 0.00,60.00,Tuesday
213,120512889.33850794
5925,120512889.33850792
2,11, 1,11, 0, 1, 0.00,60.00,Wednesday
213,93757283.59271502
5925,93757283.592715
2,11, 1,11, 0, 2, 0.00,60.00,Wednesday
213,78689802.92906156
5925,78689802.92906155
2,11, 1,11, 0, 3, 0.00,60.00,Wednesday
213,87856390.69445351
5925,87856390.69445351
2,11, 1,11, 0, 4, 0.00,60.00,Wednesday
213,77449709.85661227
5925,77449709.85661225
2,11, 1,11, 0, 5, 0.00,60.00,Wednesday
213,86562501.45454428
5925,86562501.45454428
2,11, 1,11, 0, 6, 0.00,60.00,Wednesday
213,117325407.33295673
5925,117325407.3329567
2,11, 1,11, 0, 7, 0.00,60.00,Wednesday
213,184492239.4820739
5925,184492239.4820739
2,11, 1,11, 0, 8, 0.00,60.00,Wednesday
213,183549815.628401
5925,183549815.62840098
2,11, 1,11, 0, 9, 0.00,60.00,Wednesday
213,173510320.12820306
5925,173510320.12820306
2,11, 1,11, 0,10, 0.00,60.00,Wednesday
213,158866315.4083956
5925,158866315.40839556
2,11, 1,11, 0,11, 0.00,60.00,Wednesday
213,146875310.16367602
5925,146875310.16367602
2,11, 1,11, 0,12, 0.00,60.00,Wednesday
213,136868462.23364395
5925,136868462.23364398
2,11, 1,11, 0,13, 0.00,60.00,Wednesday
213,125940174.74210086
5925,125940174.74210086
2,11, 1,11, 0,14, 0.00,60.00,Wednesday
213,124934578.70541754
5925,124934578.70541754
2,11, 1,11, 0,15, 0.00,60.00,Wednesday
213,116964399.27140589
5925,116964399.27140586
2,11, 1,11, 0,16, 0.00,60.00,Wednesday
213,128574881.35173902
5925,128574881.35173902
2,11, 1,11, 0,17, 0.00,60.00,Wednesday
213,153358005.0625997
5925,153358005.06259966
2,11, 1,11, 0,18, 0.00,60.00,Wednesday
213,189302715.7751217
5925,189302715.77512202
2,11, 1,11, 0,19, 0.00,60.00,Wednesday
213,226628797.64743093
5925,226628797.6474312
2,11, 1,11, 0,20, 0.00,60.00,Wednesday
213,219553003.52515867
5925,219553003.525159
2,11, 1,11, 0,21, 0.00,60.00,Wednesday
213,207777014.19757628
5925,207777014.19757658
2,11, 1,11, 0,22, 0.00,60.00,Wednesday
213,185539933.82606545
5925,185539933.82606563
2,11, 1,11, 0,23, 0.00,60.00,Wednesday
213,155604571.2939279
5925,155604571.29392794
2,11, 1,11, 0,24, 0.00,60.00,Wednesday
213,120358246.39920805
5925,120358246.39920802
2,12, 1,12, 0, 1, 0.00,60.00,Thursday
213,89681894.38379812
5925,89681894.3837981
2,12, 1,12, 0, 2, 0.00,60.00,Thursday
213,87186641.24486716
5925,87186641.24486715
2,12, 1,12, 0, 3, 0.00,60.00,Thursday
213,82503797.61500788
5925,82503797.61500788
2,12, 1,12, 0, 4, 0.00,60.00,Thursday
213,85387920.08623514
5925,85387920.08623514
2,12, 1,12, 0, 5, 0.00,60.00,Thursday
213,89296369.40427727
5925,89296369.40427725
2,12, 1,12, 0, 6, 0.00,60.00,Thursday
213,117371645.12580352
5925,117371645.12580347
2,12, 1,12, 0, 7, 0.00,60.00,Thursday
213,189100853.98304626
5925,189100853.98304623
2,12, 1,12, 0, 8, 0.00,60.00,Thursday
213,184565053.83218735
5925,184565053.83218735
2,12, 1,12, 0, 9, 0.00,60.00,Thursday
213,177078907.50172278
5925,177078907.5017228
2,12, 1,12, 0,10, 0.00,60.00,Thursday
213,161231642.39333045
5925,161231642.39333048
2,12, 1,12, 0,11, 0.00,60.00,Thursday
213,147275136.33561933
5925,147275136.33561933
2,12, 1,12, 0,12, 0.00,60.00,Thursday
213,135156569.42768478
5925,135156569.42768478
2,12, 1,12, 0,13, 0.00,60.00,Thursday
213,132198286.09560645
5925,132198286.09560645
2,12, 1,12, 0,14, 0.00,60.00,Thursday
213,122605657.56878845
5925,122605657.56878844
2,12, 1,12, 0,15, 0.00,60.00,Thursday
213,119829625.80777903
5925,119829625.80777903
2,12, 1,12, 0,16, 0.00,60.00,Thursday
213,131387595.31272566
5925,131387595.31272565
2,12, 1,12, 0,17, 0.00,60.00,Thursday
213,149846674.74171403
5925,149846674.741714
2,12, 1,12, 0,18, 0.00,60.00,Thursday
213,196522068.39995778
5925,196522068.3999581
2,12, 1,12, 0,19, 0.00,60.00,Thursday
213,223280126.97628978
5925,223280126.9762901
2,12, 1,12, 0,20, 0.00,60.00,Thursday
213,218990048.31893197
5925,218990048.3189323
2,12, 1,12, 0,21, 0.00,60.00,Thursday
213,210145293.7274303
5925,210145293.7274306
2,12, 1,12, 0,22, 0.00,60.00,Thursday
213,187794663.46161976
5925,187794663.4616199
2,12, 1,12, 0,23, 0.00,60.00,Thursday
213,153819725.9999577
5925,153819725.99995768
2,12, 1,12, 0,24, 0.00,60.00,Thursday
213,121546200.7731901
5925,121546200.77319008
2,13, 1,13, 0, 1, 0.00,60.00,Friday
213,94610385.57699575
5925,94610385.57699573
2,13, 1,13, 0, 2, 0.00,60.00,Friday
213,86486083.7657256
5925,86486083.7657256
2,13, 1,13, 0, 3, 0.00,60.00,Friday
213,88473012.63162261
5925,88473012.63162261
2,13, 1,13, 0, 4, 0.00,60.00,Friday
213,80865838.16658622
5925,80865838.1665862
2,13, 1,13, 0, 5, 0.00,60.00,Friday
213,95559002.25830963
5925,95559002.25830963
2,13, 1,13, 0, 6, 0.00,60.00,Friday
213,118528878.2766249
5925,118528878.27662489
2,13, 1,13, 0, 7, 0.00,60.00,Friday
213,190109857.67611006
5925,190109857.67611003
2,13, 1,13, 0, 8, 0.00,60.00,Friday
213,185236229.45998955
5925,185236229.45998955
2,13, 1,13, 0, 9, 0.00,60.00,Friday
213,178720019.77911958
5925,178720019.77911958
2,13, 1,13, 0,10, 0.00,60.00,Friday
213,154421299.99693006
5925,154421299.99693006
2,13, 1,13, 0,11, 0.00,60.00,Friday
213,155413738.61877555
5925,155413738.61877552
2,13, 1,13, 0,12, 0.00,60.00,Friday
213,137078199.99850923
5925,137078199.99850923
2,13, 1,13, 0,13, 0.00,60.00,Friday
213,129117608.21556832
5925,129117608.21556832
2,13, 1,13, 0,14, 0.00,60.00,Friday
213,121052178.12536034
5925,121052178.12536031
2,13, 1,13, 0,15, 0.00,60.00,Friday
213,124692655.43015416
5925,124692655.43015414
2,13, 1,13, 0,16, 0.00,60.00,Friday
213,123687025.17374715
5925,123687025.17374712
2,13, 1,13, 0,17, 0.00,60.00,Friday
213,154999875.90765482
5925,154999875.9076548
2,13, 1,13, 0,18, 0.00,60.00,Friday
213,195634051.69117287
5925,195634051.69117323
2,13, 1,13, 0,19, 0.00,60.00,Friday
213,225129121.33128425
5925,225129121.33128455
2,13, 1,13, 0,20, 0.00,60.00,Friday
213,223421256.6778644
5925,223421256.6778647
2,13, 1,13, 0,21, 0.00,60.00,Friday
213,207155139.08457783
5925,207155139.0845782
2,13, 1,13, 0,22, 0.00,60.00,Friday
213,186226609.38679326
5925,186226609.38679343
2,13, 1,13, 0,23, 0.00,60.00,Friday
213,158484642.41838446
5925,158484642.41838446
2,13, 1,13, 0,24, 0.00,60.00,Friday
213,119985773.3410975
5925,119985773.3410975
2,14, 1,14, 0, 1, 0.00,60.00,Saturday
213,99000597.70372409
5925,99000597.70372409
2,14, 1,14, 0, 2, 0.00,60.00,Saturday
213,83457188.01780568
5925,83457188.01780567
2,14, 1,14, 0, 3, 0.00,60.00,Saturday
213,86209613.69017008
5925,86209613.69017008
2,14, 1,14, 0, 4, 0.00,60.00,Saturday
213,86456612.15990226
5925,86456612.15990226
2,14, 1,14, 0, 5, 0.00,60.00,Saturday
213,88231932.3819892
5925,88231932.38198918
2,14, 1,14, 0, 6, 0.00,60.00,Saturday
213,123436471.23457977
5925,123436471.23457974
2,14, 1,14, 0, 7, 0.00,60.00,Saturday
213,184896962.92888567
5925,184896962.92888564
2,14, 1,14, 0, 8, 0.00,60.00,Saturday
213,187611833.88232583
5925,187611833.8823258
2,14, 1,14, 0, 9, 0.00,60.00,Saturday
213,173046780.45022532
5925,173046780.4502253
2,14, 1,14, 0,10, 0.00,60.00,Saturday
213,159556140.9328467
5925,159556140.93284667
2,14, 1,14, 0,11, 0.00,60.00,Saturday
213,144239629.96450546
5925,144239629.96450546
2,14, 1,14, 0,12, 0.00,60.00,Saturday
213,134689430.5860194
5925,134689430.58601934
2,14, 1,14, 0,13, 0.00,60.00,Saturday
213,128055238.67720512
5925,128055238.6772051
2,14, 1,14, 0,14, 0.00,60.00,Saturday
213,123988200.31759983
5925,123988200.31759985
2,14, 1,14, 0,15, 0.00,60.00,Saturday
213,110117434.28335044
5925,110117434.28335044
2,14, 1,14, 0,16, 0.00,60.00,Saturday
213,130632326.0981652
5925,130632326.0981652
2,14, 1,14, 0,17, 0.00,60.00,Saturday
213,152298392.69638506
5925,152298392.69638506
2,14, 1,14, 0,18, 0.00,60.00,Saturday
213,194238614.31619525
5925,194238614.31619555
2,14, 1,14, 0,19, 0.00,60.00,Saturday
213,226654245.68238953
5925,226654245.68238986
2,14, 1,14, 0,20, 0.00,60.00,Saturday
213,217633655.8602164
5925,217633655.86021674
2,14, 1,14, 0,21, 0.00,60.00,Saturday
213,213769791.19594383
5925,213769791.19594413
2,14, 1,14, 0,22, 0.00,60.00,Saturday
213,186029755.3690916
5925,186029755.3690918
2,14, 1,14, 0,23, 0.00,60.00,Saturday
213,159564719.4167269
5925,159564719.4167269
2,14, 1,14, 0,24, 0.00,60.00,Saturday
213,119242095.15394525
5925,119242095.15394524
2,15, 1,15, 0, 1, 0.00,60.00,Sunday
213,93259655.30111302
5925,93259655.301113
2,15, 1,15, 0, 2, 0.00,60.00,Sunday
213,91648167.98164259
5925,91648167.98164259
2,15, 1,15, 0, 3, 0.00,60.00,Sunday
213,82614714.84113006
5925,82614714.84113006
2,15, 1,15, 0, 4, 0.00,60.00,Sunday
213,83717153.19190247
5925,83717153.19190246
2,15, 1,15, 0, 5, 0.00,60.00,Sunday
213,94141539.38955638
5925,94141539.38955636
2,15, 1,15, 0, 6, 0.00,60.00,Sunday
213,119817652.16132307
5925,119817652.16132309
2,15, 1,15, 0, 7, 0.00,60.00,Sunday
213,187419347.51124293
5925,187419347.51124293
2,15, 1,15, 0, 8, 0.00,60.00,Sunday
213,188044836.99930584
5925,188044836.99930584
2,15, 1,15, 0, 9, 0.00,60.00,Sunday
213,172286657.46804515
5925,172286657.46804515
2,15, 1,15, 0,10, 0.00,60.00,Sunday
213,158140752.42874044
5925,158140752.42874044
2,15, 1,15, 0,11, 0.00,60.00,Sunday
213,146353377.94591027
5925,146353377.94591027
2,15, 1,15, 0,12, 0.00,60.00,Sunday
213,134696427.67723167
5925,134696427.67723164
2,15, 1,15, 0,13, 0.00,60.00,Sunday
213,128187642.97259185
5925,128187642.97259183
2,15, 1,15, 0,14, 0.00,60.00,Sunday
213,119848125.44358101
5925,119848125.44358101
2,15, 1,15, 0,15, 0.00,60.00,Sunday
213,118117019.19846624
5925,118117019.19846621
2,15, 1,15, 0,16, 0.00,60.00,Sunday
213,125311364.28451298
5925,125311364.28451298
2,15, 1,15, 0,17, 0.00,60.00,Sunday
213,152172264.74328694
5925,152172264.74328694
2,15, 1,15, 0,18, 0.00,60.00,Sunday
213,194587724.1036021