Program Version,EnergyPlus, Version 26.1.0-6f2e40d102, YMD=2026.04.14 20:32
1,5,Environment Title[],Latitude[deg],Longitude[deg],Time Zone[],Elevation[m]
2,8,Day of Simulation[],Month[],Day of Month[],DST Indicator[1=yes 0=no],Hour[],StartMinute[],EndMinute[],DayType
3,5,Cumulative Day of Simulation[],Month[],Day of Month[],DST Indicator[1=yes 0=no],DayType  ! When Daily Meters Requested
4,2,Cumulative Days of Simulation[],Month[]  ! When Monthly Meters Requested
5,1,Cumulative Days of Simulation[] ! When Run Period Meters Requested
6,1,Calendar Year of Simulation[] ! When Annual Meters Requested
213,1,Electricity:Facility [J] !Hourly
5925,1,ElectricityNet:Facility [J] !Hourly
End of Data Dictionary
1,RUNPERIOD 1,  28.11, 112.79,   8.00, 120.00
2,1, 1, 1, 0, 1, 0.00,60.00,Sunday
213,90349610.23239589
5925,90349610.23239586
2,1, 1, 1, 0, 2, 0.00,60.00,Sunday
213,94072110.93873554
5925,94072110.93873553
2,1, 1, 1, 0, 3, 0.00,60.00,Sunday
213,98987008.50049566
5925,98987008.50049569
2,1, 1, 1, 0, 4, 0.00,60.00,Sunday
213,92335013.01026161
5925,92335013.01026163
2,1, 1, 1, 0, 5, 0.00,60.00,Sunday
213,102303091.81856494
5925,102303091.81856494
2,1, 1, 1, 0, 6, 0.00,60.00,Sunday
213,128973265.0313487
5925,128973265.03134868
2,1, 1, 1, 0, 7, 0.00,60.00,Sunday
213,194247905.73814484
5925,194247905.7381449
2,1, 1, 1, 0, 8, 0.00,60.00,Sunday
213,198163792.18492174
5925,198163792.18492174
2,1, 1, 1, 0, 9, 0.00,60.00,Sunday
213,178095495.68557954
5925,178095495.68557957
2,1, 1, 1, 0,10, 0.00,60.00,Sunday
213,158450530.7778555
5925,158450530.7778555
2,1, 1, 1, 0,11, 0.00,60.00,Sunday
213,159394951.6726293
5925,159394951.67262927
2,1, 1, 1, 0,12, 0.00,60.00,Sunday
213,141239735.098895
5925,141239735.098895
2,1, 1, 1, 0,13, 0.00,60.00,Sunday
213,130260701.73626323
5925,130260701.73626323
2,1, 1, 1, 0,14, 0.00,60.00,Sunday
213,135604285.79318675
5925,135604285.79318675
2,1, 1, 1, 0,15, 0.00,60.00,Sunday
213,115064370.9221941
5925,115064370.92219408
2,1, 1, 1, 0,16, 0.00,60.00,Sunday
213,140959729.61819902
5925,140959729.61819905
2,1, 1, 1, 0,17, 0.00,60.00,Sunday
213,160693312.49665022
5925,160693312.49665034
2,1, 1, 1, 0,18, 0.00,60.00,Sunday
213,201274939.7654298
5925,201274939.76543006
2,1, 1, 1, 0,19, 0.00,60.00,Sunday
213,239226519.6298688
5925,239226519.62986913
2,1, 1, 1, 0,20, 0.00,60.00,Sunday
213,222786442.96721405
5925,222786442.96721438
2,1, 1, 1, 0,21, 0.00,60.00,Sunday
213,225885227.65891743
5925,225885227.65891773
2,1, 1, 1, 0,22, 0.00,60.00,Sunday
213,196704895.53978652
5925,196704895.5397867
2,1, 1, 1, 0,23, 0.00,60.00,Sunday
213,167610317.3471151
5925,167610317.3471151
2,1, 1, 1, 0,24, 0.00,60.00,Sunday
213,129647974.33784351
5925,129647974.33784352
2,2, 1, 2, 0, 1, 0.00,60.00,Holiday
213,97948511.82437137
5925,97948511.82437137
2,2, 1, 2, 0, 2, 0.00,60.00,Holiday
213,101007185.54739612
5925,101007185.54739614
2,2, 1, 2, 0, 3, 0.00,60.00,Holiday
213,92826361.72512564
5925,92826361.72512567
2,2, 1, 2, 0, 4, 0.00,60.00,Holiday
213,86796946.7553769
5925,86796946.75537689
2,2, 1, 2, 0, 5, 0.00,60.00,Holiday
213,103006719.30271947
5925,103006719.30271946
2,2, 1, 2, 0, 6, 0.00,60.00,Holiday
213,129689282.6835685
5925,129689282.6835685
2,2, 1, 2, 0, 7, 0.00,60.00,Holiday
213,195489983.08892336
5925,195489983.08892334
2,2, 1, 2, 0, 8, 0.00,60.00,Holiday
213,199621039.1049713
5925,199621039.1049713
2,2, 1, 2, 0, 9, 0.00,60.00,Holiday
213,179221831.88923526
5925,179221831.88923526
2,2, 1, 2, 0,10, 0.00,60.00,Holiday
213,159492213.0534283
5925,159492213.0534283
2,2, 1, 2, 0,11, 0.00,60.00,Holiday
213,160619130.11985254
5925,160619130.11985257
2,2, 1, 2, 0,12, 0.00,60.00,Holiday
213,147103544.40032443
5925,147103544.40032446
2,2, 1, 2, 0,13, 0.00,60.00,Holiday
213,138836057.3613796
5925,138836057.36137956
2,2, 1, 2, 0,14, 0.00,60.00,Holiday
213,123395454.6507883
5925,123395454.6507883
2,2, 1, 2, 0,15, 0.00,60.00,Holiday
213,128343863.61041957
5925,128343863.61041954
2,2, 1, 2, 0,16, 0.00,60.00,Holiday
213,127059982.16500959
5925,127059982.16500959
2,2, 1, 2, 0,17, 0.00,60.00,Holiday
213,168195667.8472657
5925,168195667.84726587
2,2, 1, 2, 0,18, 0.00,60.00,Holiday
213,198340579.40296644
5925,198340579.40296677
2,2, 1, 2, 0,19, 0.00,60.00,Holiday
213,239992599.4135688
5925,239992599.41356912
2,2, 1, 2, 0,20, 0.00,60.00,Holiday
213,229976729.82998246
5925,229976729.82998282
2,2, 1, 2, 0,21, 0.00,60.00,Holiday
213,216549872.7847789
5925,216549872.7847792
2,2, 1, 2, 0,22, 0.00,60.00,Holiday
213,194094074.14263788
5925,194094074.14263806
2,2, 1, 2, 0,23, 0.00,60.00,Holiday
213,168311693.31558615
5925,168311693.31558618
2,2, 1, 2, 0,24, 0.00,60.00,Holiday
213,130386313.30851984
5925,130386313.30851984
2,3, 1, 3, 0, 1, 0.00,60.00,Tuesday
213,111805188.70319964
5925,111805188.70319963
2,3, 1, 3, 0, 2, 0.00,60.00,Tuesday
213,95733003.3665675
5925,95733003.36656749
2,3, 1, 3, 0, 3, 0.00,60.00,Tuesday
213,87481044.88158478
5925,87481044.88158478
2,3, 1, 3, 0, 4, 0.00,60.00,Tuesday
213,99946531.90656225
5925,99946531.90656228
2,3, 1, 3, 0, 5, 0.00,60.00,Tuesday
213,97773395.47770238
5925,97773395.47770238
2,3, 1, 3, 0, 6, 0.00,60.00,Tuesday
213,131114038.10312814
5925,131114038.10312814
2,3, 1, 3, 0, 7, 0.00,60.00,Tuesday
213,196572790.1826059
5925,196572790.18260586
2,3, 1, 3, 0, 8, 0.00,60.00,Tuesday
213,192997398.63286817
5925,192997398.63286817
2,3, 1, 3, 0, 9, 0.00,60.00,Tuesday
213,191829967.7944613
5925,191829967.79446125
2,3, 1, 3, 0,10, 0.00,60.00,Tuesday
213,170270575.21727666
5925,170270575.21727666
2,3, 1, 3, 0,11, 0.00,60.00,Tuesday
213,159533649.27390075
5925,159533649.27390075
2,3, 1, 3, 0,12, 0.00,60.00,Tuesday
213,144694858.60564244
5925,144694858.60564244
2,3, 1, 3, 0,13, 0.00,60.00,Tuesday
213,143131057.5982189
5925,143131057.5982189
2,3, 1, 3, 0,14, 0.00,60.00,Tuesday
213,128192344.40971604
5925,128192344.40971602
2,3, 1, 3, 0,15, 0.00,60.00,Tuesday
213,140823917.56591922
5925,140823917.5659192
2,3, 1, 3, 0,16, 0.00,60.00,Tuesday
213,145889209.7747183
5925,145889209.7747183
2,3, 1, 3, 0,17, 0.00,60.00,Tuesday
213,153007096.4632907
5925,153007096.46329084
2,3, 1, 3, 0,18, 0.00,60.00,Tuesday
213,213618011.19159603
5925,213618011.19159633
2,3, 1, 3, 0,19, 0.00,60.00,Tuesday
213,227263618.85443723
5925,227263618.8544375
2,3, 1, 3, 0,20, 0.00,60.00,Tuesday
213,238075822.7741315
5925,238075822.77413183
2,3, 1, 3, 0,21, 0.00,60.00,Tuesday
213,213797312.43595943
5925,213797312.4359598
2,3, 1, 3, 0,22, 0.00,60.00,Tuesday
213,197831058.93912223
5925,197831058.93912244
2,3, 1, 3, 0,23, 0.00,60.00,Tuesday
213,168636965.92248237
5925,168636965.92248237
2,3, 1, 3, 0,24, 0.00,60.00,Tuesday
213,130092023.88487042
5925,130092023.88487042
2,4, 1, 4, 0, 1, 0.00,60.00,Wednesday
213,104516913.57021482
5925,104516913.57021481
2,4, 1, 4, 0, 2, 0.00,60.00,Wednesday
213,95902958.43612652
5925,95902958.43612653
2,4, 1, 4, 0, 3, 0.00,60.00,Wednesday
213,101288992.23926242
5925,101288992.23926242
2,4, 1, 4, 0, 4, 0.00,60.00,Wednesday
213,94554342.93091533
5925,94554342.9309153
2,4, 1, 4, 0, 5, 0.00,60.00,Wednesday
213,91058330.76573628
5925,91058330.76573628
2,4, 1, 4, 0, 6, 0.00,60.00,Wednesday
213,131113676.46315253
5925,131113676.46315253
2,4, 1, 4, 0, 7, 0.00,60.00,Wednesday
213,196451635.18653366
5925,196451635.18653366
2,4, 1, 4, 0, 8, 0.00,60.00,Wednesday
213,200848046.90886322
5925,200848046.90886322
2,4, 1, 4, 0, 9, 0.00,60.00,Wednesday
213,184587633.29695487
5925,184587633.29695487
2,4, 1, 4, 0,10, 0.00,60.00,Wednesday
213,178139605.00173044
5925,178139605.00173047
2,4, 1, 4, 0,11, 0.00,60.00,Wednesday
213,151532687.7504778
5925,151532687.7504778
2,4, 1, 4, 0,12, 0.00,60.00,Wednesday
213,150266376.16347137
5925,150266376.16347137
2,4, 1, 4, 0,13, 0.00,60.00,Wednesday
213,140651005.23034635
5925,140651005.23034635
2,4, 1, 4, 0,14, 0.00,60.00,Wednesday
213,138951142.32760173
5925,138951142.3276017
2,4, 1, 4, 0,15, 0.00,60.00,Wednesday
213,118432313.02698974
5925,118432313.02698974
2,4, 1, 4, 0,16, 0.00,60.00,Wednesday
213,144017362.62926632
5925,144017362.6292663
2,4, 1, 4, 0,17, 0.00,60.00,Wednesday
213,171399974.10035497
5925,171399974.10035512
2,4, 1, 4, 0,18, 0.00,60.00,Wednesday
213,198388282.88396457
5925,198388282.88396487
2,4, 1, 4, 0,19, 0.00,60.00,Wednesday
213,239216844.45675787
5925,239216844.4567582
2,4, 1, 4, 0,20, 0.00,60.00,Wednesday
213,214834096.93543
5925,214834096.93543035
2,4, 1, 4, 0,21, 0.00,60.00,Wednesday
213,231876659.71210083
5925,231876659.7121012
2,4, 1, 4, 0,22, 0.00,60.00,Wednesday
213,190924679.38255167
5925,190924679.38255185
2,4, 1, 4, 0,23, 0.00,60.00,Wednesday
213,153806804.89565253
5925,153806804.89565253
2,4, 1, 4, 0,24, 0.00,60.00,Wednesday
213,142430670.0846218
5925,142430670.08462176
2,5, 1, 5, 0, 1, 0.00,60.00,Thursday
213,97554666.47911537
5925,97554666.47911537
2,5, 1, 5, 0, 2, 0.00,60.00,Thursday
213,107604261.57813182
5925,107604261.57813182
2,5, 1, 5, 0, 3, 0.00,60.00,Thursday
213,86493472.81677699
5925,86493472.81677698
2,5, 1, 5, 0, 4, 0.00,60.00,Thursday
213,85754068.66240047
5925,85754068.66240047
2,5, 1, 5, 0, 5, 0.00,60.00,Thursday
213,109276930.48206902
5925,109276930.482069
2,5, 1, 5, 0, 6, 0.00,60.00,Thursday
213,129623069.78223602
5925,129623069.78223601
2,5, 1, 5, 0, 7, 0.00,60.00,Thursday
213,195668951.92326447
5925,195668951.9232645
2,5, 1, 5, 0, 8, 0.00,60.00,Thursday
213,192360699.71979293
5925,192360699.7197929
2,5, 1, 5, 0, 9, 0.00,60.00,Thursday
213,190523149.37109268
5925,190523149.37109265
2,5, 1, 5, 0,10, 0.00,60.00,Thursday
213,154103505.90457413
5925,154103505.9045741
2,5, 1, 5, 0,11, 0.00,60.00,Thursday
213,169189061.82754117
5925,169189061.82754117
2,5, 1, 5, 0,12, 0.00,60.00,Thursday
213,139925244.47397307
5925,139925244.47397313
2,5, 1, 5, 0,13, 0.00,60.00,Thursday
213,131874726.14483868
5925,131874726.14483866
2,5, 1, 5, 0,14, 0.00,60.00,Thursday
213,128411267.72710668
5925,128411267.72710666
2,5, 1, 5, 0,15, 0.00,60.00,Thursday
213,134057761.75580989
5925,134057761.75580989
2,5, 1, 5, 0,16, 0.00,60.00,Thursday
213,125331765.9056593
5925,125331765.9056593
2,5, 1, 5, 0,17, 0.00,60.00,Thursday
213,159601393.4079068
5925,159601393.407907
2,5, 1, 5, 0,18, 0.00,60.00,Thursday
213,194766184.9743888
5925,194766184.97438914
2,5, 1, 5, 0,19, 0.00,60.00,Thursday
213,236456620.30145854
5925,236456620.30145884
2,5, 1, 5, 0,20, 0.00,60.00,Thursday
213,233897408.19874227
5925,233897408.19874257
2,5, 1, 5, 0,21, 0.00,60.00,Thursday
213,210072777.78408095
5925,210072777.78408128
2,5, 1, 5, 0,22, 0.00,60.00,Thursday
213,194439165.44313815
5925,194439165.44313833
2,5, 1, 5, 0,23, 0.00,60.00,Thursday
213,165271530.40145558
5925,165271530.40145558
2,5, 1, 5, 0,24, 0.00,60.00,Thursday
213,126613773.75478156
5925,126613773.75478157
2,6, 1, 6, 0, 1, 0.00,60.00,Friday
213,101619004.1200498
5925,101619004.12004976
2,6, 1, 6, 0, 2, 0.00,60.00,Friday
213,91965488.2448329
5925,91965488.2448329
2,6, 1, 6, 0, 3, 0.00,60.00,Friday
213,91454415.12041338
5925,91454415.12041338
2,6, 1, 6, 0, 4, 0.00,60.00,Friday
213,97025935.81167275
5925,97025935.81167278
2,6, 1, 6, 0, 5, 0.00,60.00,Friday
213,93921694.07499063
5925,93921694.07499063
2,6, 1, 6, 0, 6, 0.00,60.00,Friday
213,121311307.4463156
5925,121311307.4463156
2,6, 1, 6, 0, 7, 0.00,60.00,Friday
213,198913409.96029663
5925,198913409.96029663
2,6, 1, 6, 0, 8, 0.00,60.00,Friday
213,191765989.63944492
5925,191765989.63944486
2,6, 1, 6, 0, 9, 0.00,60.00,Friday
213,180108119.73213097
5925,180108119.73213097
2,6, 1, 6, 0,10, 0.00,60.00,Friday
213,171897582.1627898
5925,171897582.16278976
2,6, 1, 6, 0,11, 0.00,60.00,Friday
213,143695236.53604937
5925,143695236.53604937
2,6, 1, 6, 0,12, 0.00,60.00,Friday
213,142034701.8511075
5925,142034701.8511075
2,6, 1, 6, 0,13, 0.00,60.00,Friday
213,132384734.4148354
5925,132384734.4148354
2,6, 1, 6, 0,14, 0.00,60.00,Friday
213,116862914.28672585
5925,116862914.28672582
2,6, 1, 6, 0,15, 0.00,60.00,Friday
213,128810163.96508735
5925,128810163.96508735
2,6, 1, 6, 0,16, 0.00,60.00,Friday
213,133853008.03461787
5925,133853008.03461784
2,6, 1, 6, 0,17, 0.00,60.00,Friday
213,141267140.30056542
5925,141267140.30056542
2,6, 1, 6, 0,18, 0.00,60.00,Friday
213,203585405.45829
5925,203585405.45829028
2,6, 1, 6, 0,19, 0.00,60.00,Friday
213,219613727.0829122
5925,219613727.08291256
2,6, 1, 6, 0,20, 0.00,60.00,Friday
213,230621663.35494202
5925,230621663.35494235
2,6, 1, 6, 0,21, 0.00,60.00,Friday
213,207925163.67844915
5925,207925163.67844948
2,6, 1, 6, 0,22, 0.00,60.00,Friday
213,185165575.3341168
5925,185165575.33411697
2,6, 1, 6, 0,23, 0.00,60.00,Friday
213,171578920.03939715
5925,171578920.03939718
2,6, 1, 6, 0,24, 0.00,60.00,Friday
213,126482360.8565028
5925,126482360.8565028
2,7, 1, 7, 0, 1, 0.00,60.00,Saturday
213,102003706.81766067
5925,102003706.81766066
2,7, 1, 7, 0, 2, 0.00,60.00,Saturday
213,94309450.7163265
5925,94309450.7163265
2,7, 1, 7, 0, 3, 0.00,60.00,Saturday
213,99487516.64148702
5925,99487516.64148702
2,7, 1, 7, 0, 4, 0.00,60.00,Saturday
213,92893284.68635277
5925,92893284.68635276
2,7, 1, 7, 0, 5, 0.00,60.00,Saturday
213,89935904.97819912
5925,89935904.97819912
2,7, 1, 7, 0, 6, 0.00,60.00,Saturday
213,139826299.3302987
5925,139826299.3302987
2,7, 1, 7, 0, 7, 0.00,60.00,Saturday
213,185718732.43269584
5925,185718732.43269584
2,7, 1, 7, 0, 8, 0.00,60.00,Saturday
213,205188099.1089941
5925,205188099.1089941
2,7, 1, 7, 0, 9, 0.00,60.00,Saturday
213,172921900.71652588
5925,172921900.7165259
2,7, 1, 7, 0,10, 0.00,60.00,Saturday
213,170660710.38283908
5925,170660710.38283905
2,7, 1, 7, 0,11, 0.00,60.00,Saturday
213,145126271.84104595
5925,145126271.84104595
2,7, 1, 7, 0,12, 0.00,60.00,Saturday
213,144451144.8987067
5925,144451144.89870667
2,7, 1, 7, 0,13, 0.00,60.00,Saturday
213,124590303.58921771
5925,124590303.58921772
2,7, 1, 7, 0,14, 0.00,60.00,Saturday
213,128284193.24633472
5925,128284193.24633467
2,7, 1, 7, 0,15, 0.00,60.00,Saturday
213,106066062.90952566
5925,106066062.90952565
2,7, 1, 7, 0,16, 0.00,60.00,Saturday
213,131600412.63819127
5925,131600412.63819125
2,7, 1, 7, 0,17, 0.00,60.00,Saturday
213,160357992.87185583
5925,160357992.87185583
2,7, 1, 7, 0,18, 0.00,60.00,Saturday
213,192392889.44816667
5925,192392889.44816697
2,7, 1, 7, 0,19, 0.00,60.00,Saturday
213,234790441.78673643
5925,234790441.7867368
2,7, 1, 7, 0,20, 0.00,60.00,Saturday
213,212340045.21426407
5925,212340045.2142644
2,7, 1, 7, 0,21, 0.00,60.00,Saturday
213,229079956.78436464
5925,229079956.784365
2,7, 1, 7, 0,22, 0.00,60.00,Saturday
213,186333586.38318092
5925,186333586.3831811
2,7, 1, 7, 0,23, 0.00,60.00,Saturday
213,165074738.04067338
5925,165074738.04067338
2,7, 1, 7, 0,24, 0.00,60.00,Saturday
213,126948699.18167791
5925,126948699.18167788
2,8, 1, 8, 0, 1, 0.00,60.00,Sunday
213,95674364.26347947
5925,95674364.26347944
2,8, 1, 8, 0, 2, 0.00,60.00,Sunday
213,106738674.46093749
5925,106738674.4609375
2,8, 1, 8, 0, 3, 0.00,60.00,Sunday
213,85959415.33918291
5925,85959415.33918291
2,8, 1, 8, 0, 4, 0.00,60.00,Sunday
213,85661205.30945788
5925,85661205.30945787
2,8, 1, 8, 0, 5, 0.00,60.00,Sunday
213,109766848.93179798
5925,109766848.931798
2,8, 1, 8, 0, 6, 0.00,60.00,Sunday
213,129606383.61865307
5925,129606383.61865306
2,8, 1, 8, 0, 7, 0.00,60.00,Sunday
213,195433280.5987649
5925,195433280.59876487
2,8, 1, 8, 0, 8, 0.00,60.00,Sunday
213,196358515.96543068
5925,196358515.9654307
2,8, 1, 8, 0, 9, 0.00,60.00,Sunday
213,181556140.38919622
5925,181556140.38919616
2,8, 1, 8, 0,10, 0.00,60.00,Sunday
213,165515664.81289965
5925,165515664.81289965
2,8, 1, 8, 0,11, 0.00,60.00,Sunday
213,144851897.31593972
5925,144851897.31593972
2,8, 1, 8, 0,12, 0.00,60.00,Sunday
213,137087309.51876426
5925,137087309.51876426
2,8, 1, 8, 0,13, 0.00,60.00,Sunday
213,129741265.82812786
5925,129741265.82812786
2,8, 1, 8, 0,14, 0.00,60.00,Sunday
213,112814317.37517717
5925,112814317.37517715
2,8, 1, 8, 0,15, 0.00,60.00,Sunday
213,117607561.75876099
5925,117607561.75876097
2,8, 1, 8, 0,16, 0.00,60.00,Sunday
213,119589424.11800422
5925,119589424.11800423
2,8, 1, 8, 0,17, 0.00,60.00,Sunday
213,147628553.30883363
5925,147628553.30883363
2,8, 1, 8, 0,18, 0.00,60.00,Sunday
213,210078869.24144033
5925,210078869.24144065
2,8, 1, 8, 0,19, 0.00,60.00,Sunday
213,211771120.69816118
5925,211771120.6981615
2,8, 1, 8, 0,20, 0.00,60.00,Sunday
213,230398485.5820577
5925,230398485.58205807
2,8, 1, 8, 0,21, 0.00,60.00,Sunday
213,207174196.37168825
5925,207174196.37168854
2,8, 1, 8, 0,22, 0.00,60.00,Sunday
213,192209002.81470343
5925,192209002.8147036
2,8, 1, 8, 0,23, 0.00,60.00,Sunday
213,163677251.7639392
5925,163677251.76393923
2,8, 1, 8, 0,24, 0.00,60.00,Sunday
213,125699464.61703324
5925,125699464.61703324
2,9, 1, 9, 0, 1, 0.00,60.00,Monday
213,107746169.15597269
5925,107746169.15597267
2,9, 1, 9, 0, 2, 0.00,60.00,Monday
213,86295091.5763329
5925,86295091.5763329
2,9, 1, 9, 0, 3, 0.00,60.00,Monday
213,102106738.31183285
5925,102106738.31183285
2,9, 1, 9, 0, 4, 0.00,60.00,Monday
213,88417166.67413753
5925,88417166.67413752
2,9, 1, 9, 0, 5, 0.00,60.00,Monday
213,96559592.70666012
5925,96559592.70666012
2,9, 1, 9, 0, 6, 0.00,60.00,Monday
213,129891665.78522629
5925,129891665.7852263
2,9, 1, 9, 0, 7, 0.00,60.00,Monday
213,196084952.36241812
5925,196084952.3624181
2,9, 1, 9, 0, 8, 0.00,60.00,Monday
213,193249951.40205348
5925,193249951.40205345
2,9, 1, 9, 0, 9, 0.00,60.00,Monday
213,190520809.80904174
5925,190520809.8090417
2,9, 1, 9, 0,10, 0.00,60.00,Monday
213,166605307.92029268
5925,166605307.92029268
2,9, 1, 9, 0,11, 0.00,60.00,Monday
213,152394696.32581794
5925,152394696.32581794
2,9, 1, 9, 0,12, 0.00,60.00,Monday
213,133877281.5489926
5925,133877281.5489926
2,9, 1, 9, 0,13, 0.00,60.00,Monday
213,138377320.5416326
5925,138377320.5416326
2,9, 1, 9, 0,14, 0.00,60.00,Monday
213,124719193.69789892
5925,124719193.6978989
2,9, 1, 9, 0,15, 0.00,60.00,Monday
213,113365843.95113629
5925,113365843.95113628
2,9, 1, 9, 0,16, 0.00,60.00,Monday
213,134462428.0668667
5925,134462428.06686667
2,9, 1, 9, 0,17, 0.00,60.00,Monday
213,153891944.320172
5925,153891944.320172
2,9, 1, 9, 0,18, 0.00,60.00,Monday
213,189701808.4855918
5925,189701808.48559207
2,9, 1, 9, 0,19, 0.00,60.00,Monday
213,228910247.64142093
5925,228910247.64142132
2,9, 1, 9, 0,20, 0.00,60.00,Monday
213,215917797.53508636
5925,215917797.5350867
2,9, 1, 9, 0,21, 0.00,60.00,Monday
213,219873376.2029843
5925,219873376.20298466
2,9, 1, 9, 0,22, 0.00,60.00,Monday
213,191233325.28320915
5925,191233325.28320932
2,9, 1, 9, 0,23, 0.00,60.00,Monday
213,158882107.37887946
5925,158882107.37887946
2,9, 1, 9, 0,24, 0.00,60.00,Monday
213,128682312.80165398
5925,128682312.80165398
2,10, 1,10, 0, 1, 0.00,60.00,Tuesday
213,96282895.72865969
5925,96282895.72865967
2,10, 1,10, 0, 2, 0.00,60.00,Tuesday
213,98491119.98077239
5925,98491119.9807724
2,10, 1,10, 0, 3, 0.00,60.00,Tuesday
213,93103803.92772165
5925,93103803.92772166
2,10, 1,10, 0, 4, 0.00,60.00,Tuesday
213,84924210.57439359
5925,84924210.57439357
2,10, 1,10, 0, 5, 0.00,60.00,Tuesday
213,109160422.31802207
5925,109160422.31802209
2,10, 1,10, 0, 6, 0.00,60.00,Tuesday
213,125824500.69327573
5925,125824500.69327573
2,10, 1,10, 0, 7, 0.00,60.00,Tuesday
213,199402298.01380914
5925,199402298.0138091
2,10, 1,10, 0, 8, 0.00,60.00,Tuesday
213,192804727.32024467
5925,192804727.32024467
2,10, 1,10, 0, 9, 0.00,60.00,Tuesday
213,187453831.98545167
5925,187453831.98545167
2,10, 1,10, 0,10, 0.00,60.00,Tuesday
213,163066156.93532616
5925,163066156.93532616
2,10, 1,10, 0,11, 0.00,60.00,Tuesday
213,158385379.52131256
5925,158385379.5213126
2,10, 1,10, 0,12, 0.00,60.00,Tuesday
213,133261208.10624236
5925,133261208.10624236
2,10, 1,10, 0,13, 0.00,60.00,Tuesday
213,132160186.47529928
5925,132160186.4752993
2,10, 1,10, 0,14, 0.00,60.00,Tuesday
213,114498659.14757222
5925,114498659.14757222
2,10, 1,10, 0,15, 0.00,60.00,Tuesday
213,129194103.22016978
5925,129194103.22016978
2,10, 1,10, 0,16, 0.00,60.00,Tuesday
213,124897876.1031802
5925,124897876.10318017
2,10, 1,10, 0,17, 0.00,60.00,Tuesday
213,148058127.12623417
5925,148058127.12623417
2,10, 1,10, 0,18, 0.00,60.00,Tuesday
213,196710492.31517377
5925,196710492.3151741
2,10, 1,10, 0,19, 0.00,60.00,Tuesday
213,218009266.0119938
5925,218009266.0119941
2,10, 1,10, 0,20, 0.00,60.00,Tuesday
213,226351399.5666151
5925,226351399.5666154
2,10, 1,10, 0,21, 0.00,60.00,Tuesday
213,203825932.7673317
5925,203825932.76733202
2,10, 1,10, 0,22, 0.00,60.00,Tuesday
213,189066331.87701696
5925,189066331.8770171
2,10, 1,10, 0,23, 0.00,60.00,Tuesday
213,160156915.25969666
5925,160156915.25969663
2,10, 1,10, 0,24, 0.00,60.00,Tuesday
213,121691701.88536821
5925,121691701.88536823
2,11, 1,11, 0, 1, 0.00,60.00,Wednesday
213,101819349.2521125
5925,101819349.25211248
2,11, 1,11, 0, 2, 0.00,60.00,Wednesday
213,82618506.56781304
5925,82618506.56781304
2,11, 1,11, 0, 3, 0.00,60.00,Wednesday
213,96282365.7105703
5925,96282365.7105703
2,11, 1,11, 0, 4, 0.00,60.00,Wednesday
213,84612887.90267922
5925,84612887.90267923
2,11, 1,11, 0, 5, 0.00,60.00,Wednesday
213,87353826.17524777
5925,87353826.17524777
2,11, 1,11, 0, 6, 0.00,60.00,Wednesday
213,131259186.0946978
5925,131259186.09469779
2,11, 1,11, 0, 7, 0.00,60.00,Wednesday
213,183516526.56005496
5925,183516526.56005493
2,11, 1,11, 0, 8, 0.00,60.00,Wednesday
213,192508843.49012053
5925,192508843.49012056
2,11, 1,11, 0, 9, 0.00,60.00,Wednesday
213,178779269.35019422
5925,178779269.35019422
2,11, 1,11, 0,10, 0.00,60.00,Wednesday
213,167843748.51737085
5925,167843748.51737085
2,11, 1,11, 0,11, 0.00,60.00,Wednesday
213,153813604.81683713
5925,153813604.81683716
2,11, 1,11, 0,12, 0.00,60.00,Wednesday
213,144140373.48383448
5925,144140373.48383448
2,11, 1,11, 0,13, 0.00,60.00,Wednesday
213,133452288.75150308
5925,133452288.75150311
2,11, 1,11, 0,14, 0.00,60.00,Wednesday
213,131059400.91236903
5925,131059400.91236903
2,11, 1,11, 0,15, 0.00,60.00,Wednesday
213,121958405.6975446
5925,121958405.69754462
2,11, 1,11, 0,16, 0.00,60.00,Wednesday
213,140976428.1947419
5925,140976428.1947419
2,11, 1,11, 0,17, 0.00,60.00,Wednesday
213,161327633.27404144
5925,161327633.27404165
2,11, 1,11, 0,18, 0.00,60.00,Wednesday
213,196653793.17247307
5925,196653793.1724734
2,11, 1,11, 0,19, 0.00,60.00,Wednesday
213,236223177.0667628
5925,236223177.0667631
2,11, 1,11, 0,20, 0.00,60.00,Wednesday
213,227870121.99183843
5925,227870121.99183875
2,11, 1,11, 0,21, 0.00,60.00,Wednesday
213,216187502.21232334
5925,216187502.21232367
2,11, 1,11, 0,22, 0.00,60.00,Wednesday
213,194348961.35066313
5925,194348961.35066333
2,11, 1,11, 0,23, 0.00,60.00,Wednesday
213,161922621.33902737
5925,161922621.33902737
2,11, 1,11, 0,24, 0.00,60.00,Wednesday
213,130208634.47904351
5925,130208634.47904351
2,12, 1,12, 0, 1, 0.00,60.00,Thursday
213,97087785.82765797
5925,97087785.82765797
2,12, 1,12, 0, 2, 0.00,60.00,Thursday
213,98698189.23293692
5925,98698189.23293692
2,12, 1,12, 0, 3, 0.00,60.00,Thursday
213,91369235.70373577
5925,91369235.70373577
2,12, 1,12, 0, 4, 0.00,60.00,Thursday
213,96676538.23599064
5925,96676538.23599063
2,12, 1,12, 0, 5, 0.00,60.00,Thursday
213,96535676.34381592
5925,96535676.34381592
2,12, 1,12, 0, 6, 0.00,60.00,Thursday
213,129366983.98685627
5925,129366983.98685628
2,12, 1,12, 0, 7, 0.00,60.00,Thursday
213,195316876.52093792
5925,195316876.52093792
2,12, 1,12, 0, 8, 0.00,60.00,Thursday
213,195294568.28215566
5925,195294568.28215563
2,12, 1,12, 0, 9, 0.00,60.00,Thursday
213,187119220.91826943
5925,187119220.91826946
2,12, 1,12, 0,10, 0.00,60.00,Thursday
213,169110343.38329065
5925,169110343.38329068
2,12, 1,12, 0,11, 0.00,60.00,Thursday
213,156318919.2124685
5925,156318919.2124685
2,12, 1,12, 0,12, 0.00,60.00,Thursday
213,145561824.74213946
5925,145561824.74213946
2,12, 1,12, 0,13, 0.00,60.00,Thursday
213,143381066.3312124
5925,143381066.3312124
2,12, 1,12, 0,14, 0.00,60.00,Thursday
213,131557943.79369125
5925,131557943.79369125
2,12, 1,12, 0,15, 0.00,60.00,Thursday
213,127143487.84166281
5925,127143487.84166282
2,12, 1,12, 0,16, 0.00,60.00,Thursday
213,139650374.23918244
5925,139650374.2391824
2,12, 1,12, 0,17, 0.00,60.00,Thursday
213,160965835.68064734
5925,160965835.68064752
2,12, 1,12, 0,18, 0.00,60.00,Thursday
213,205145713.7464556
5925,205145713.7464559
2,12, 1,12, 0,19, 0.00,60.00,Thursday
213,231643887.7078672
5925,231643887.70786744
2,12, 1,12, 0,20, 0.00,60.00,Thursday
213,227839784.1793651
5925,227839784.17936546
2,12, 1,12, 0,21, 0.00,60.00,Thursday
213,218844614.25721183
5925,218844614.25721216
2,12, 1,12, 0,22, 0.00,60.00,Thursday
213,196276357.441479
5925,196276357.44147918
2,12, 1,12, 0,23, 0.00,60.00,Thursday
213,158863533.19090316
5925,158863533.19090313
2,12, 1,12, 0,24, 0.00,60.00,Thursday
213,135224670.71359158
5925,135224670.71359158
2,13, 1,13, 0, 1, 0.00,60.00,Friday
213,103569557.07892872
5925,103569557.07892871
2,13, 1,13, 0, 2, 0.00,60.00,Friday
213,91195473.64813203
5925,91195473.64813204
2,13, 1,13, 0, 3, 0.00,60.00,Friday
213,98988814.86016908
5925,98988814.86016908
2,13, 1,13, 0, 4, 0.00,60.00,Friday
213,91025108.5611293
5925,91025108.56112932
2,13, 1,13, 0, 5, 0.00,60.00,Friday
213,102841309.28311597
5925,102841309.28311595
2,13, 1,13, 0, 6, 0.00,60.00,Friday
213,130029747.1046748
5925,130029747.10467479
2,13, 1,13, 0, 7, 0.00,60.00,Friday
213,196514307.7158735
5925,196514307.7158735
2,13, 1,13, 0, 8, 0.00,60.00,Friday
213,194977982.88354367
5925,194977982.88354364
2,13, 1,13, 0, 9, 0.00,60.00,Friday
213,187181128.42698503
5925,187181128.42698503
2,13, 1,13, 0,10, 0.00,60.00,Friday
213,165874262.45245847
5925,165874262.45245847
2,13, 1,13, 0,11, 0.00,60.00,Friday
213,160979801.96045527
5925,160979801.96045527
2,13, 1,13, 0,12, 0.00,60.00,Friday
213,148081698.10081863
5925,148081698.10081863
2,13, 1,13, 0,13, 0.00,60.00,Friday
213,138009803.3965124
5925,138009803.3965124
2,13, 1,13, 0,14, 0.00,60.00,Friday
213,131566503.32120273
5925,131566503.32120273
2,13, 1,13, 0,15, 0.00,60.00,Friday
213,130955073.92935723
5925,130955073.9293572
2,13, 1,13, 0,16, 0.00,60.00,Friday
213,133493113.91450474
5925,133493113.91450474
2,13, 1,13, 0,17, 0.00,60.00,Friday
213,163805147.37418646
5925,163805147.37418664
2,13, 1,13, 0,18, 0.00,60.00,Friday
213,203857146.2626119
5925,203857146.2626122
2,13, 1,13, 0,19, 0.00,60.00,Friday
213,235368953.63969976
5925,235368953.6397001
2,13, 1,13, 0,20, 0.00,60.00,Friday
213,229405934.17431024
5925,229405934.17431062
2,13, 1,13, 0,21, 0.00,60.00,Friday
213,218369009.041858
5925,218369009.04185835
2,13, 1,13, 0,22, 0.00,60.00,Friday
213,194168349.72056535
5925,194168349.72056556
2,13, 1,13, 0,23, 0.00,60.00,Friday
213,167135567.30872762
5925,167135567.3087276
2,13, 1,13, 0,24, 0.00,60.00,Friday
213,128609862.54324132
5925,128609862.5432413
2,14, 1,14, 0, 1, 0.00,60.00,Saturday
213,107044414.51681209
5925,107044414.51681209
2,14, 1,14, 0, 2, 0.00,60.00,Saturday
213,95186132.88378751
5925,95186132.88378753
2,14, 1,14, 0, 3, 0.00,60.00,Saturday
213,90898955.2477699
5925,90898955.24776989
2,14, 1,14, 0, 4, 0.00,60.00,Saturday
213,96341910.66257174
5925,96341910.66257173
2,14, 1,14, 0, 5, 0.00,60.00,Saturday
213,99819859.16107526
5925,99819859.16107526
2,14, 1,14, 0, 6, 0.00,60.00,Saturday
213,127706938.08637063
5925,127706938.08637063
2,14, 1,14, 0, 7, 0.00,60.00,Saturday
213,199369786.7773493
5925,199369786.7773493
2,14, 1,14, 0, 8, 0.00,60.00,Saturday
213,195936704.1534869
5925,195936704.1534869
2,14, 1,14, 0, 9, 0.00,60.00,Saturday
213,179560676.2988734
5925,179560676.29887342
2,14, 1,14, 0,10, 0.00,60.00,Saturday
213,170873355.3514254
5925,170873355.3514254
2,14, 1,14, 0,11, 0.00,60.00,Saturday
213,151043429.42157102
5925,151043429.42157105
2,14, 1,14, 0,12, 0.00,60.00,Saturday
213,142534692.55398288
5925,142534692.55398288
2,14, 1,14, 0,13, 0.00,60.00,Saturday
213,137601831.97039783
5925,137601831.97039783
2,14, 1,14, 0,14, 0.00,60.00,Saturday
213,131114871.48101225
5925,131114871.48101224
2,14, 1,14, 0,15, 0.00,60.00,Saturday
213,121480132.11950986
5925,121480132.11950985
2,14, 1,14, 0,16, 0.00,60.00,Saturday
213,139893788.76377672
5925,139893788.7637767
2,14, 1,14, 0,17, 0.00,60.00,Saturday
213,160658745.53669333
5925,160658745.53669348
2,14, 1,14, 0,18, 0.00,60.00,Saturday
213,202082126.05099148
5925,202082126.0509917
2,14, 1,14, 0,19, 0.00,60.00,Saturday
213,236190134.7253319
5925,236190134.7253322
2,14, 1,14, 0,20, 0.00,60.00,Saturday
213,222880445.73949128
5925,222880445.73949155
2,14, 1,14, 0,21, 0.00,60.00,Saturday
213,226435333.68354
5925,226435333.6835403
2,14, 1,14, 0,22, 0.00,60.00,Saturday
213,193023613.30031142
5925,193023613.30031163
2,14, 1,14, 0,23, 0.00,60.00,Saturday
213,170296516.78667757
5925,170296516.78667757
2,14, 1,14, 0,24, 0.00,60.00,Saturday
213,125777694.62927052
5925,125777694.62927054
2,15, 1,15, 0, 1, 0.00,60.00,Sunday
213,100652557.87155648
5925,100652557.87155648
2,15, 1,15, 0, 2, 0.00,60.00,Sunday
213,100685074.58043402
5925,100685074.58043405
2,15, 1,15, 0, 3, 0.00,60.00,Sunday
213,93841561.15738331
5925,93841561.15738331
2,15, 1,15, 0, 4, 0.00,60.00,Sunday
213,89722935.39227366
5925,89722935.39227365
2,15, 1,15, 0, 5, 0.00,60.00,Sunday
213,105582417.86446337
5925,105582417.86446339
2,15, 1,15, 0, 6, 0.00,60.00,Sunday
213,127824918.80348201
5925,127824918.803482
2,15, 1,15, 0, 7, 0.00,60.00,Sunday
213,196833695.09840447
5925,196833695.09840447
2,15, 1,15, 0, 8, 0.00,60.00,Sunday
213,196034479.58427376
5925,196034479.5842738
2,15, 1,15, 0, 9, 0.00,60.00,Sunday
213,183709985.2829458
5925,183709985.2829458
2,15, 1,15, 0,10, 0.00,60.00,Sunday
213,164899885.6256462
5925,164899885.62564617
2,15, 1,15, 0,11, 0.00,60.00,Sunday
213,156267296.95487824
5925,156267296.95487827
2,15, 1,15, 0,12, 0.00,60.00,Sunday
213,143053505.9246222
5925,143053505.92462218
2,15, 1,15, 0,13, 0.00,60.00,Sunday
213,138343403.15224475
5925,138343403.15224472
2,15, 1,15, 0,14, 0.00,60.00,Sunday
213,124724987.60436353
5925,124724987.60436353
2,15, 1,15, 0,15, 0.00,60.00,Sunday
213,133750067.38231172
5925,133750067.38231175
2,15, 1,15, 0,16, 0.00,60.00,Sunday
213,133771760.45511782
5925,133771760.45511782
2,15, 1,15, 0,17, 0.00,60.00,Sunday
213,155572567.78968418
5925,155572567.78968436
2,15, 1,15, 0,18, 0.00,60.00,Sunday