Program Version,EnergyPlus, Version 26.1.0-6f2e40d102, YMD=2026.04.14 19:44
1,5,Environment Title[],Latitude[deg],Longitude[deg],Time Zone[],Elevation[m]
2,8,Day of Simulation[],Month[],Day of Month[],DST Indicator[1=yes 0=no],Hour[],StartMinute[],EndMinute[],DayType
3,5,Cumulative Day of Simulation[],Month[],Day of Month[],DST Indicator[1=yes 0=no],DayType  ! When Daily Meters Requested
4,2,Cumulative Days of Simulation[],Month[]  ! When Monthly Meters Requested
5,1,Cumulative Days of Simulation[] ! When Run Period Meters Requested
6,1,Calendar Year of Simulation[] ! When Annual Meters Requested
213,1,Electricity:Facility [J] !Hourly
5925,1,ElectricityNet:Facility [J] !Hourly
End of Data Dictionary
1,RUNPERIOD 1,  28.11, 112.79,   8.00, 120.00
2,1, 1, 1, 0, 1, 0.00,60.00,Sunday
213,96167351.37200609
5925,96167351.37200609
2,1, 1, 1, 0, 2, 0.00,60.00,Sunday
213,99322929.23882699
5925,99322929.23882699
2,1, 1, 1, 0, 3, 0.00,60.00,Sunday
213,104262736.48648848
5925,104262736.48648848
2,1, 1, 1, 0, 4, 0.00,60.00,Sunday
213,97618453.19021837
5925,97618453.19021836
2,1, 1, 1, 0, 5, 0.00,60.00,Sunday
213,107584410.15434113
5925,107584410.15434112
2,1, 1, 1, 0, 6, 0.00,60.00,Sunday
213,134268574.48024833
5925,134268574.4802483
2,1, 1, 1, 0, 7, 0.00,60.00,Sunday
213,199498301.21007246
5925,199498301.2100724
2,1, 1, 1, 0, 8, 0.00,60.00,Sunday
213,203302093.5931743
5925,203302093.5931744
2,1, 1, 1, 0, 9, 0.00,60.00,Sunday
213,183308853.46671817
5925,183308853.46671817
2,1, 1, 1, 0,10, 0.00,60.00,Sunday
213,163723725.60855758
5925,163723725.60855758
2,1, 1, 1, 0,11, 0.00,60.00,Sunday
213,164580248.4656604
5925,164580248.46566036
2,1, 1, 1, 0,12, 0.00,60.00,Sunday
213,147101481.87634093
5925,147101481.87634093
2,1, 1, 1, 0,13, 0.00,60.00,Sunday
213,136064972.0028309
5925,136064972.0028309
2,1, 1, 1, 0,14, 0.00,60.00,Sunday
213,140830581.2391144
5925,140830581.2391144
2,1, 1, 1, 0,15, 0.00,60.00,Sunday
213,121024755.83601192
5925,121024755.83601187
2,1, 1, 1, 0,16, 0.00,60.00,Sunday
213,147037921.49313146
5925,147037921.49313146
2,1, 1, 1, 0,17, 0.00,60.00,Sunday
213,166141230.13720587
5925,166141230.13720608
2,1, 1, 1, 0,18, 0.00,60.00,Sunday
213,206768406.67631578
5925,206768406.67631608
2,1, 1, 1, 0,19, 0.00,60.00,Sunday
213,244735910.19454905
5925,244735910.1945494
2,1, 1, 1, 0,20, 0.00,60.00,Sunday
213,228311963.36597395
5925,228311963.3659743
2,1, 1, 1, 0,21, 0.00,60.00,Sunday
213,231421529.43497956
5925,231421529.4349799
2,1, 1, 1, 0,22, 0.00,60.00,Sunday
213,202245729.28360927
5925,202245729.2836095
2,1, 1, 1, 0,23, 0.00,60.00,Sunday
213,173140609.41860542
5925,173140609.4186054
2,1, 1, 1, 0,24, 0.00,60.00,Sunday
213,135771892.1018293
5925,135771892.1018293
2,2, 1, 2, 0, 1, 0.00,60.00,Holiday
213,103976738.17156863
5925,103976738.1715686
2,2, 1, 2, 0, 2, 0.00,60.00,Holiday
213,106546872.8006184
5925,106546872.80061835
2,2, 1, 2, 0, 3, 0.00,60.00,Holiday
213,98162483.05643545
5925,98162483.05643547
2,2, 1, 2, 0, 4, 0.00,60.00,Holiday
213,92466818.37540367
5925,92466818.37540367
2,2, 1, 2, 0, 5, 0.00,60.00,Holiday
213,108526448.10836111
5925,108526448.1083611
2,2, 1, 2, 0, 6, 0.00,60.00,Holiday
213,135226994.18868515
5925,135226994.18868512
2,2, 1, 2, 0, 7, 0.00,60.00,Holiday
213,201160020.23059654
5925,201160020.23059654
2,2, 1, 2, 0, 8, 0.00,60.00,Holiday
213,205246102.8364238
5925,205246102.8364239
2,2, 1, 2, 0, 9, 0.00,60.00,Holiday
213,184810649.8173923
5925,184810649.8173923
2,2, 1, 2, 0,10, 0.00,60.00,Holiday
213,165117804.93651453
5925,165117804.9365145
2,2, 1, 2, 0,11, 0.00,60.00,Holiday
213,166224915.1246605
5925,166224915.1246605
2,2, 1, 2, 0,12, 0.00,60.00,Holiday
213,152690477.04014373
5925,152690477.04014373
2,2, 1, 2, 0,13, 0.00,60.00,Holiday
213,144421355.19460106
5925,144421355.19460106
2,2, 1, 2, 0,14, 0.00,60.00,Holiday
213,128984065.03288282
5925,128984065.03288281
2,2, 1, 2, 0,15, 0.00,60.00,Holiday
213,133814659.05960828
5925,133814659.05960825
2,2, 1, 2, 0,16, 0.00,60.00,Holiday
213,132451412.6603956
5925,132451412.66039562
2,2, 1, 2, 0,17, 0.00,60.00,Holiday
213,173638947.12972957
5925,173638947.12972972
2,2, 1, 2, 0,18, 0.00,60.00,Holiday
213,203873816.96356964
5925,203873816.96357
2,2, 1, 2, 0,19, 0.00,60.00,Holiday
213,245729000.0502901
5925,245729000.0502904
2,2, 1, 2, 0,20, 0.00,60.00,Holiday
213,235871020.44697416
5925,235871020.44697452
2,2, 1, 2, 0,21, 0.00,60.00,Holiday
213,222351012.88323298
5925,222351012.88323328
2,2, 1, 2, 0,22, 0.00,60.00,Holiday
213,199851879.57344723
5925,199851879.57344747
2,2, 1, 2, 0,23, 0.00,60.00,Holiday
213,174060572.2470153
5925,174060572.2470153
2,2, 1, 2, 0,24, 0.00,60.00,Holiday
213,136753614.49308434
5925,136753614.4930843
2,3, 1, 3, 0, 1, 0.00,60.00,Tuesday
213,118082552.56404522
5925,118082552.56404518
2,3, 1, 3, 0, 2, 0.00,60.00,Tuesday
213,101539208.06853375
5925,101539208.06853375
2,3, 1, 3, 0, 3, 0.00,60.00,Tuesday
213,93267255.98727128
5925,93267255.98727128
2,3, 1, 3, 0, 4, 0.00,60.00,Tuesday
213,105736402.5462468
5925,105736402.54624678
2,3, 1, 3, 0, 5, 0.00,60.00,Tuesday
213,103581230.88481191
5925,103581230.88481192
2,3, 1, 3, 0, 6, 0.00,60.00,Tuesday
213,137559810.96126834
5925,137559810.9612683
2,3, 1, 3, 0, 7, 0.00,60.00,Tuesday
213,202951052.18234527
5925,202951052.1823452
2,3, 1, 3, 0, 8, 0.00,60.00,Tuesday
213,198878525.1348221
5925,198878525.1348222
2,3, 1, 3, 0, 9, 0.00,60.00,Tuesday
213,197672561.99594358
5925,197672561.99594364
2,3, 1, 3, 0,10, 0.00,60.00,Tuesday
213,176057077.50195763
5925,176057077.50195763
2,3, 1, 3, 0,11, 0.00,60.00,Tuesday
213,165355492.8022854
5925,165355492.80228543
2,3, 1, 3, 0,12, 0.00,60.00,Tuesday
213,150515718.47121567
5925,150515718.47121567
2,3, 1, 3, 0,13, 0.00,60.00,Tuesday
213,148883250.71223417
5925,148883250.7122342
2,3, 1, 3, 0,14, 0.00,60.00,Tuesday
213,133945283.89461136
5925,133945283.89461139
2,3, 1, 3, 0,15, 0.00,60.00,Tuesday
213,146613609.559394
5925,146613609.559394
2,3, 1, 3, 0,16, 0.00,60.00,Tuesday
213,151698478.13096902
5925,151698478.13096902
2,3, 1, 3, 0,17, 0.00,60.00,Tuesday
213,158867699.04757166
5925,158867699.0475718
2,3, 1, 3, 0,18, 0.00,60.00,Tuesday
213,219552163.7004004
5925,219552163.70040074
2,3, 1, 3, 0,19, 0.00,60.00,Tuesday
213,233251831.95039195
5925,233251831.95039225
2,3, 1, 3, 0,20, 0.00,60.00,Tuesday
213,244113009.22151792
5925,244113009.22151828
2,3, 1, 3, 0,21, 0.00,60.00,Tuesday
213,219759555.73948103
5925,219759555.7394814
2,3, 1, 3, 0,22, 0.00,60.00,Tuesday
213,203687116.88189182
5925,203687116.88189203
2,3, 1, 3, 0,23, 0.00,60.00,Tuesday
213,174445932.14476424
5925,174445932.1447642
2,3, 1, 3, 0,24, 0.00,60.00,Tuesday
213,135877691.6972476
5925,135877691.6972476
2,4, 1, 4, 0, 1, 0.00,60.00,Wednesday
213,110302150.98250297
5925,110302150.98250294
2,4, 1, 4, 0, 2, 0.00,60.00,Wednesday
213,101695457.93796326
5925,101695457.93796328
2,4, 1, 4, 0, 3, 0.00,60.00,Wednesday
213,107705075.92433791
5925,107705075.9243379
2,4, 1, 4, 0, 4, 0.00,60.00,Wednesday
213,100883878.8363289
5925,100883878.8363289
2,4, 1, 4, 0, 5, 0.00,60.00,Wednesday
213,96942677.89990573
5925,96942677.89990573
2,4, 1, 4, 0, 6, 0.00,60.00,Wednesday
213,137112711.07253772
5925,137112711.07253772
2,4, 1, 4, 0, 7, 0.00,60.00,Wednesday
213,202410264.929494
5925,202410264.929494
2,4, 1, 4, 0, 8, 0.00,60.00,Wednesday
213,206730140.6453302
5925,206730140.6453303
2,4, 1, 4, 0, 9, 0.00,60.00,Wednesday
213,190531847.52849603
5925,190531847.5284961
2,4, 1, 4, 0,10, 0.00,60.00,Wednesday
213,184011842.7918409
5925,184011842.7918409
2,4, 1, 4, 0,11, 0.00,60.00,Wednesday
213,157185947.9002512
5925,157185947.9002512
2,4, 1, 4, 0,12, 0.00,60.00,Wednesday
213,155469837.91599086
5925,155469837.91599086
2,4, 1, 4, 0,13, 0.00,60.00,Wednesday
213,145561024.5990122
5925,145561024.5990122
2,4, 1, 4, 0,14, 0.00,60.00,Wednesday
213,143840591.25973505
5925,143840591.25973505
2,4, 1, 4, 0,15, 0.00,60.00,Wednesday
213,124113677.31432982
5925,124113677.31432982
2,4, 1, 4, 0,16, 0.00,60.00,Wednesday
213,149608902.14329907
5925,149608902.14329904
2,4, 1, 4, 0,17, 0.00,60.00,Wednesday
213,176519360.23061717
5925,176519360.23061737
2,4, 1, 4, 0,18, 0.00,60.00,Wednesday
213,204182353.81271234
5925,204182353.81271267
2,4, 1, 4, 0,19, 0.00,60.00,Wednesday
213,244992450.72036427
5925,244992450.72036463
2,4, 1, 4, 0,20, 0.00,60.00,Wednesday
213,220207243.46820122
5925,220207243.46820152
2,4, 1, 4, 0,21, 0.00,60.00,Wednesday
213,237813285.30427653
5925,237813285.30427682
2,4, 1, 4, 0,22, 0.00,60.00,Wednesday
213,196821943.46720648
5925,196821943.4672067
2,4, 1, 4, 0,23, 0.00,60.00,Wednesday
213,159225716.75258937
5925,159225716.75258934
2,4, 1, 4, 0,24, 0.00,60.00,Wednesday
213,148399766.1094277
5925,148399766.1094277
2,5, 1, 5, 0, 1, 0.00,60.00,Thursday
213,103469640.72458796
5925,103469640.72458796
2,5, 1, 5, 0, 2, 0.00,60.00,Thursday
213,113059436.57749444
5925,113059436.57749444
2,5, 1, 5, 0, 3, 0.00,60.00,Thursday
213,92368431.04013279
5925,92368431.04013279
2,5, 1, 5, 0, 4, 0.00,60.00,Thursday
213,91511604.73293501
5925,91511604.73293501
2,5, 1, 5, 0, 5, 0.00,60.00,Thursday
213,114642603.31206113
5925,114642603.3120611
2,5, 1, 5, 0, 6, 0.00,60.00,Thursday
213,135600481.5886422
5925,135600481.5886422
2,5, 1, 5, 0, 7, 0.00,60.00,Thursday
213,201802775.01829156
5925,201802775.01829153
2,5, 1, 5, 0, 8, 0.00,60.00,Thursday
213,198169139.60278043
5925,198169139.60278052
2,5, 1, 5, 0, 9, 0.00,60.00,Thursday
213,196167623.38839677
5925,196167623.38839683
2,5, 1, 5, 0,10, 0.00,60.00,Thursday
213,159299657.6555637
5925,159299657.65556368
2,5, 1, 5, 0,11, 0.00,60.00,Thursday
213,173890144.08893234
5925,173890144.08893234
2,5, 1, 5, 0,12, 0.00,60.00,Thursday
213,144312648.2359543
5925,144312648.2359543
2,5, 1, 5, 0,13, 0.00,60.00,Thursday
213,136055868.63522172
5925,136055868.6352217
2,5, 1, 5, 0,14, 0.00,60.00,Thursday
213,132432489.81900533
5925,132432489.81900531
2,5, 1, 5, 0,15, 0.00,60.00,Thursday
213,137924847.9753257
5925,137924847.9753257
2,5, 1, 5, 0,16, 0.00,60.00,Thursday
213,129222020.68828788
5925,129222020.68828785
2,5, 1, 5, 0,17, 0.00,60.00,Thursday
213,163753735.8379112
5925,163753735.83791137
2,5, 1, 5, 0,18, 0.00,60.00,Thursday
213,199419637.14149213
5925,199419637.1414925
2,5, 1, 5, 0,19, 0.00,60.00,Thursday
213,241404442.83545506
5925,241404442.83545542
2,5, 1, 5, 0,20, 0.00,60.00,Thursday
213,238982546.8525564
5925,238982546.85255677
2,5, 1, 5, 0,21, 0.00,60.00,Thursday
213,215227857.07939327
5925,215227857.07939357
2,5, 1, 5, 0,22, 0.00,60.00,Thursday
213,199595369.53209814
5925,199595369.53209832
2,5, 1, 5, 0,23, 0.00,60.00,Thursday
213,170389736.3193205
5925,170389736.3193205
2,5, 1, 5, 0,24, 0.00,60.00,Thursday
213,131653548.32945818
5925,131653548.32945815
2,6, 1, 6, 0, 1, 0.00,60.00,Friday
213,106735509.34959847
5925,106735509.34959847
2,6, 1, 6, 0, 2, 0.00,60.00,Friday
213,96912851.1012564
5925,96912851.10125642
2,6, 1, 6, 0, 3, 0.00,60.00,Friday
213,96556679.11962803
5925,96556679.11962804
2,6, 1, 6, 0, 4, 0.00,60.00,Friday
213,102151317.60334726
5925,102151317.60334726
2,6, 1, 6, 0, 5, 0.00,60.00,Friday
213,98956482.73925355
5925,98956482.73925354
2,6, 1, 6, 0, 6, 0.00,60.00,Friday
213,126519088.18494843
5925,126519088.1849484
2,6, 1, 6, 0, 7, 0.00,60.00,Friday
213,204053775.71505064
5925,204053775.71505058
2,6, 1, 6, 0, 8, 0.00,60.00,Friday
213,196990605.75554034
5925,196990605.75554034
2,6, 1, 6, 0, 9, 0.00,60.00,Friday
213,185068208.235726
5925,185068208.23572597
2,6, 1, 6, 0,10, 0.00,60.00,Friday
213,176144802.07835814
5925,176144802.07835814
2,6, 1, 6, 0,11, 0.00,60.00,Friday
213,147324994.8315266
5925,147324994.83152658
2,6, 1, 6, 0,12, 0.00,60.00,Friday
213,144916000.89696974
5925,144916000.89696974
2,6, 1, 6, 0,13, 0.00,60.00,Friday
213,134589364.1813971
5925,134589364.18139714
2,6, 1, 6, 0,14, 0.00,60.00,Friday
213,118547740.06013529
5925,118547740.0601353
2,6, 1, 6, 0,15, 0.00,60.00,Friday
213,130314221.47675389
5925,130314221.47675389
2,6, 1, 6, 0,16, 0.00,60.00,Friday
213,135328763.48918286
5925,135328763.48918283
2,6, 1, 6, 0,17, 0.00,60.00,Friday
213,143520194.62406418
5925,143520194.6240642
2,6, 1, 6, 0,18, 0.00,60.00,Friday
213,207312805.86223382
5925,207312805.86223418
2,6, 1, 6, 0,19, 0.00,60.00,Friday
213,224028168.5444997
5925,224028168.5445001
2,6, 1, 6, 0,20, 0.00,60.00,Friday
213,235702071.7310393
5925,235702071.73103958
2,6, 1, 6, 0,21, 0.00,60.00,Friday
213,212234943.03029156
5925,212234943.03029183
2,6, 1, 6, 0,22, 0.00,60.00,Friday
213,190170272.99452877
5925,190170272.99452895
2,6, 1, 6, 0,23, 0.00,60.00,Friday
213,176852714.0019388
5925,176852714.0019388
2,6, 1, 6, 0,24, 0.00,60.00,Friday
213,132021137.4305517
5925,132021137.4305517
2,7, 1, 7, 0, 1, 0.00,60.00,Saturday
213,107926742.83026971
5925,107926742.83026968
2,7, 1, 7, 0, 2, 0.00,60.00,Saturday
213,100543232.06258638
5925,100543232.06258638
2,7, 1, 7, 0, 3, 0.00,60.00,Saturday
213,105826906.81011344
5925,105826906.81011346
2,7, 1, 7, 0, 4, 0.00,60.00,Saturday
213,99252354.52709761
5925,99252354.52709761
2,7, 1, 7, 0, 5, 0.00,60.00,Saturday
213,96335556.05119869
5925,96335556.05119868
2,7, 1, 7, 0, 6, 0.00,60.00,Saturday
213,149668026.50770867
5925,149668026.50770867
2,7, 1, 7, 0, 7, 0.00,60.00,Saturday
213,188877080.75750673
5925,188877080.75750673
2,7, 1, 7, 0, 8, 0.00,60.00,Saturday
213,211705733.41917166
5925,211705733.41917172
2,7, 1, 7, 0, 9, 0.00,60.00,Saturday
213,179094110.5958062
5925,179094110.5958062
2,7, 1, 7, 0,10, 0.00,60.00,Saturday
213,176135709.9151614
5925,176135709.9151614
2,7, 1, 7, 0,11, 0.00,60.00,Saturday
213,149952226.381822
5925,149952226.38182196
2,7, 1, 7, 0,12, 0.00,60.00,Saturday
213,148366637.38986695
5925,148366637.38986695
2,7, 1, 7, 0,13, 0.00,60.00,Saturday
213,128106944.64422707
5925,128106944.64422707
2,7, 1, 7, 0,14, 0.00,60.00,Saturday
213,131722700.06932728
5925,131722700.06932727
2,7, 1, 7, 0,15, 0.00,60.00,Saturday
213,109258378.76194842
5925,109258378.76194844
2,7, 1, 7, 0,16, 0.00,60.00,Saturday
213,134833347.7604382
5925,134833347.7604382
2,7, 1, 7, 0,17, 0.00,60.00,Saturday
213,164043161.2921552
5925,164043161.29215524
2,7, 1, 7, 0,18, 0.00,60.00,Saturday
213,196724744.15801367
5925,196724744.158014
2,7, 1, 7, 0,19, 0.00,60.00,Saturday
213,239404103.34351218
5925,239404103.34351248
2,7, 1, 7, 0,20, 0.00,60.00,Saturday
213,217176467.7795051
5925,217176467.77950543
2,7, 1, 7, 0,21, 0.00,60.00,Saturday
213,234023641.53209558
5925,234023641.5320959
2,7, 1, 7, 0,22, 0.00,60.00,Saturday
213,191434935.1380481
5925,191434935.13804826
2,7, 1, 7, 0,23, 0.00,60.00,Saturday
213,170350401.00848323
5925,170350401.0084832
2,7, 1, 7, 0,24, 0.00,60.00,Saturday
213,132368692.64141262
5925,132368692.64141262
2,8, 1, 8, 0, 1, 0.00,60.00,Sunday
213,101228244.57524985
5925,101228244.57524985
2,8, 1, 8, 0, 2, 0.00,60.00,Sunday
213,112474798.5966089
5925,112474798.59660892
2,8, 1, 8, 0, 3, 0.00,60.00,Sunday
213,91895302.26120342
5925,91895302.26120342
2,8, 1, 8, 0, 4, 0.00,60.00,Sunday
213,91693458.7624868
5925,91693458.7624868
2,8, 1, 8, 0, 5, 0.00,60.00,Sunday
213,115848388.09999382
5925,115848388.09999382
2,8, 1, 8, 0, 6, 0.00,60.00,Sunday
213,135741501.83177036
5925,135741501.83177036
2,8, 1, 8, 0, 7, 0.00,60.00,Sunday
213,201693913.7011611
5925,201693913.70116106
2,8, 1, 8, 0, 8, 0.00,60.00,Sunday
213,203207565.2689818
5925,203207565.2689819
2,8, 1, 8, 0, 9, 0.00,60.00,Sunday
213,187102259.028333
5925,187102259.028333
2,8, 1, 8, 0,10, 0.00,60.00,Sunday
213,171760294.41686618
5925,171760294.41686612
2,8, 1, 8, 0,11, 0.00,60.00,Sunday
213,147910267.28960636
5925,147910267.28960636
2,8, 1, 8, 0,12, 0.00,60.00,Sunday
213,140784208.6787815
5925,140784208.6787815
2,8, 1, 8, 0,13, 0.00,60.00,Sunday
213,131151907.40208879
5925,131151907.40208876
2,8, 1, 8, 0,14, 0.00,60.00,Sunday
213,114500051.10805658
5925,114500051.10805656
2,8, 1, 8, 0,15, 0.00,60.00,Sunday
213,119182367.00179431
5925,119182367.0017943
2,8, 1, 8, 0,16, 0.00,60.00,Sunday
213,121306940.33506872
5925,121306940.33506872
2,8, 1, 8, 0,17, 0.00,60.00,Sunday
213,150107213.00121102
5925,150107213.00121102
2,8, 1, 8, 0,18, 0.00,60.00,Sunday
213,214381243.201283
5925,214381243.20128334
2,8, 1, 8, 0,19, 0.00,60.00,Sunday
213,215385545.41317922
5925,215385545.41317955
2,8, 1, 8, 0,20, 0.00,60.00,Sunday
213,234787642.13453972
5925,234787642.13454014
2,8, 1, 8, 0,21, 0.00,60.00,Sunday
213,211822826.74755615
5925,211822826.74755648
2,8, 1, 8, 0,22, 0.00,60.00,Sunday
213,197080916.12631297
5925,197080916.12631315
2,8, 1, 8, 0,23, 0.00,60.00,Sunday
213,168727287.10479525
5925,168727287.10479525
2,8, 1, 8, 0,24, 0.00,60.00,Sunday
213,130925679.38737215
5925,130925679.38737217
2,9, 1, 9, 0, 1, 0.00,60.00,Monday
213,113181063.41553111
5925,113181063.41553111
2,9, 1, 9, 0, 2, 0.00,60.00,Monday
213,92125769.56846575
5925,92125769.56846575
2,9, 1, 9, 0, 3, 0.00,60.00,Monday
213,111550245.56842728
5925,111550245.5684273
2,9, 1, 9, 0, 4, 0.00,60.00,Monday
213,90835175.13249828
5925,90835175.13249828
2,9, 1, 9, 0, 5, 0.00,60.00,Monday
213,102733703.06087394
5925,102733703.06087393
2,9, 1, 9, 0, 6, 0.00,60.00,Monday
213,136277918.43176055
5925,136277918.43176055
2,9, 1, 9, 0, 7, 0.00,60.00,Monday
213,202709049.21444392
5925,202709049.21444392
2,9, 1, 9, 0, 8, 0.00,60.00,Monday
213,200012104.6789477
5925,200012104.6789478
2,9, 1, 9, 0, 9, 0.00,60.00,Monday
213,196790778.1243567
5925,196790778.12435675
2,9, 1, 9, 0,10, 0.00,60.00,Monday
213,171868203.86392304
5925,171868203.86392304
2,9, 1, 9, 0,11, 0.00,60.00,Monday
213,156625063.7010186
5925,156625063.70101857
2,9, 1, 9, 0,12, 0.00,60.00,Monday
213,136201446.9699704
5925,136201446.96997043
2,9, 1, 9, 0,13, 0.00,60.00,Monday
213,139604154.0315062
5925,139604154.0315062
2,9, 1, 9, 0,14, 0.00,60.00,Monday
213,126925463.08596729
5925,126925463.08596727
2,9, 1, 9, 0,15, 0.00,60.00,Monday
213,111286866.03915536
5925,111286866.03915536
2,9, 1, 9, 0,16, 0.00,60.00,Monday
213,133975222.62745652
5925,133975222.62745652
2,9, 1, 9, 0,17, 0.00,60.00,Monday
213,154415373.22627345
5925,154415373.22627345
2,9, 1, 9, 0,18, 0.00,60.00,Monday
213,191986084.9141172
5925,191986084.91411752
2,9, 1, 9, 0,19, 0.00,60.00,Monday
213,232774055.4640997
5925,232774055.46410003
2,9, 1, 9, 0,20, 0.00,60.00,Monday
213,220278238.93830252
5925,220278238.93830281
2,9, 1, 9, 0,21, 0.00,60.00,Monday
213,224500207.85377982
5925,224500207.8537801
2,9, 1, 9, 0,22, 0.00,60.00,Monday
213,196036506.57987934
5925,196036506.57987952
2,9, 1, 9, 0,23, 0.00,60.00,Monday
213,166436049.20212638
5925,166436049.20212635
2,9, 1, 9, 0,24, 0.00,60.00,Monday
213,132301716.44647679
5925,132301716.44647679
2,10, 1,10, 0, 1, 0.00,60.00,Tuesday
213,101484910.07650213
5925,101484910.0765021
2,10, 1,10, 0, 2, 0.00,60.00,Tuesday
213,105349501.56032878
5925,105349501.56032878
2,10, 1,10, 0, 3, 0.00,60.00,Tuesday
213,98259296.29709595
5925,98259296.29709594
2,10, 1,10, 0, 4, 0.00,60.00,Tuesday
213,91007344.58896312
5925,91007344.5889631
2,10, 1,10, 0, 5, 0.00,60.00,Tuesday
213,115319429.83559522
5925,115319429.83559522
2,10, 1,10, 0, 6, 0.00,60.00,Tuesday
213,132644598.00233513
5925,132644598.0023351
2,10, 1,10, 0, 7, 0.00,60.00,Tuesday
213,205423332.87999606
5925,205423332.879996
2,10, 1,10, 0, 8, 0.00,60.00,Tuesday
213,199485480.8398677
5925,199485480.83986783
2,10, 1,10, 0, 9, 0.00,60.00,Tuesday
213,195799317.57212973
5925,195799317.57212973
2,10, 1,10, 0,10, 0.00,60.00,Tuesday
213,167503713.11649498
5925,167503713.11649495
2,10, 1,10, 0,11, 0.00,60.00,Tuesday
213,161304117.44099182
5925,161304117.4409918
2,10, 1,10, 0,12, 0.00,60.00,Tuesday
213,135145133.2413629
5925,135145133.2413629
2,10, 1,10, 0,13, 0.00,60.00,Tuesday
213,135772381.10212103
5925,135772381.10212103
2,10, 1,10, 0,14, 0.00,60.00,Tuesday
213,112497900.53440309
5925,112497900.53440309
2,10, 1,10, 0,15, 0.00,60.00,Tuesday
213,128456986.4779836
5925,128456986.47798356
2,10, 1,10, 0,16, 0.00,60.00,Tuesday
213,125238453.26959884
5925,125238453.2695988
2,10, 1,10, 0,17, 0.00,60.00,Tuesday
213,147686999.1595865
5925,147686999.15958646
2,10, 1,10, 0,18, 0.00,60.00,Tuesday
213,198963482.88384044
5925,198963482.8838408
2,10, 1,10, 0,19, 0.00,60.00,Tuesday
213,219182407.90694243
5925,219182407.90694275
2,10, 1,10, 0,20, 0.00,60.00,Tuesday
213,229378378.60183594
5925,229378378.60183626
2,10, 1,10, 0,21, 0.00,60.00,Tuesday
213,207617485.06581897
5925,207617485.06581923
2,10, 1,10, 0,22, 0.00,60.00,Tuesday
213,193114301.96164328
5925,193114301.96164343
2,10, 1,10, 0,23, 0.00,60.00,Tuesday
213,164203329.69174227
5925,164203329.69174227
2,10, 1,10, 0,24, 0.00,60.00,Tuesday
213,125676788.45816554
5925,125676788.45816554
2,11, 1,11, 0, 1, 0.00,60.00,Wednesday
213,107387288.14222048
5925,107387288.14222048
2,11, 1,11, 0, 2, 0.00,60.00,Wednesday
213,85154020.85124223
5925,85154020.85124223
2,11, 1,11, 0, 3, 0.00,60.00,Wednesday
213,101699126.21991836
5925,101699126.21991837
2,11, 1,11, 0, 4, 0.00,60.00,Wednesday
213,88274920.6698929
5925,88274920.6698929
2,11, 1,11, 0, 5, 0.00,60.00,Wednesday
213,94175955.14683735
5925,94175955.14683735
2,11, 1,11, 0, 6, 0.00,60.00,Wednesday
213,135009626.04613695
5925,135009626.04613692
2,11, 1,11, 0, 7, 0.00,60.00,Wednesday
213,188842350.02750778
5925,188842350.02750778
2,11, 1,11, 0, 8, 0.00,60.00,Wednesday
213,194533670.78354213
5925,194533670.7835421
2,11, 1,11, 0, 9, 0.00,60.00,Wednesday
213,183187473.00902513
5925,183187473.0090251
2,11, 1,11, 0,10, 0.00,60.00,Wednesday
213,172386298.8615576
5925,172386298.86155763
2,11, 1,11, 0,11, 0.00,60.00,Wednesday
213,161234147.42608654
5925,161234147.42608654
2,11, 1,11, 0,12, 0.00,60.00,Wednesday
213,146971822.37542963
5925,146971822.37542963
2,11, 1,11, 0,13, 0.00,60.00,Wednesday
213,136414096.11702603
5925,136414096.11702603
2,11, 1,11, 0,14, 0.00,60.00,Wednesday
213,135010673.53048134
5925,135010673.5304813
2,11, 1,11, 0,15, 0.00,60.00,Wednesday
213,126875147.84404388
5925,126875147.84404385
2,11, 1,11, 0,16, 0.00,60.00,Wednesday
213,146012744.44684964
5925,146012744.44684964
2,11, 1,11, 0,17, 0.00,60.00,Wednesday
213,166184391.23618466
5925,166184391.23618484
2,11, 1,11, 0,18, 0.00,60.00,Wednesday
213,201445127.51074526
5925,201445127.5107456
2,11, 1,11, 0,19, 0.00,60.00,Wednesday
213,241400744.37095994
5925,241400744.3709602
2,11, 1,11, 0,20, 0.00,60.00,Wednesday
213,235069880.44446263
5925,235069880.44446296
2,11, 1,11, 0,21, 0.00,60.00,Wednesday
213,219255926.05556852
5925,219255926.05556884
2,11, 1,11, 0,22, 0.00,60.00,Wednesday
213,199478333.6171447
5925,199478333.61714485
2,11, 1,11, 0,23, 0.00,60.00,Wednesday
213,169804537.2191735
5925,169804537.21917343
2,11, 1,11, 0,24, 0.00,60.00,Wednesday
213,133842340.51484337
5925,133842340.51484339
2,12, 1,12, 0, 1, 0.00,60.00,Thursday
213,101708985.63591059
5925,101708985.63591057
2,12, 1,12, 0, 2, 0.00,60.00,Thursday
213,105509232.00245935
5925,105509232.00245938
2,12, 1,12, 0, 3, 0.00,60.00,Thursday
213,98282518.85222527
5925,98282518.85222527
2,12, 1,12, 0, 4, 0.00,60.00,Thursday
213,100218834.26423083
5925,100218834.2642308
2,12, 1,12, 0, 5, 0.00,60.00,Thursday
213,103485970.10524042
5925,103485970.1052404
2,12, 1,12, 0, 6, 0.00,60.00,Thursday
213,133410115.37179337
5925,133410115.37179337
2,12, 1,12, 0, 7, 0.00,60.00,Thursday
213,204316014.3835107
5925,204316014.3835107
2,12, 1,12, 0, 8, 0.00,60.00,Thursday
213,198125595.260135
5925,198125595.26013505
2,12, 1,12, 0, 9, 0.00,60.00,Thursday
213,193352351.06174898
5925,193352351.061749
2,12, 1,12, 0,10, 0.00,60.00,Thursday
213,175073731.56800023
5925,175073731.56800023
2,12, 1,12, 0,11, 0.00,60.00,Thursday
213,164145544.72213742
5925,164145544.72213742
2,12, 1,12, 0,12, 0.00,60.00,Thursday
213,148518062.5168169
5925,148518062.51681688
2,12, 1,12, 0,13, 0.00,60.00,Thursday
213,149094995.21499962
5925,149094995.21499962
2,12, 1,12, 0,14, 0.00,60.00,Thursday
213,137685276.5121249
5925,137685276.5121249
2,12, 1,12, 0,15, 0.00,60.00,Thursday
213,130956525.2495229
5925,130956525.24952288
2,12, 1,12, 0,16, 0.00,60.00,Thursday
213,145264720.58429417
5925,145264720.58429417
2,12, 1,12, 0,17, 0.00,60.00,Thursday
213,167500975.77255273
5925,167500975.77255288
2,12, 1,12, 0,18, 0.00,60.00,Thursday
213,212824369.57424715
5925,212824369.57424748
2,12, 1,12, 0,19, 0.00,60.00,Thursday
213,236436448.77211374
5925,236436448.77211407
2,12, 1,12, 0,20, 0.00,60.00,Thursday
213,231153103.36235696
5925,231153103.3623573
2,12, 1,12, 0,21, 0.00,60.00,Thursday
213,226550315.6076072
5925,226550315.60760754
2,12, 1,12, 0,22, 0.00,60.00,Thursday
213,202229551.6512445
5925,202229551.65124467
2,12, 1,12, 0,23, 0.00,60.00,Thursday
213,162190104.5222264
5925,162190104.5222264
2,12, 1,12, 0,24, 0.00,60.00,Thursday
213,141692161.15256456
5925,141692161.1525646
2,13, 1,13, 0, 1, 0.00,60.00,Friday
213,108938370.15644872
5925,108938370.15644869
2,13, 1,13, 0, 2, 0.00,60.00,Friday
213,96859126.79847674
5925,96859126.79847673
2,13, 1,13, 0, 3, 0.00,60.00,Friday
213,109863713.00819004
5925,109863713.00819002
2,13, 1,13, 0, 4, 0.00,60.00,Friday
213,92569081.24586296
5925,92569081.24586296
2,13, 1,13, 0, 5, 0.00,60.00,Friday
213,111107851.40133059
5925,111107851.40133059
2,13, 1,13, 0, 6, 0.00,60.00,Friday
213,133586448.85832626
5925,133586448.85832626
2,13, 1,13, 0, 7, 0.00,60.00,Friday
213,205057699.00972337
5925,205057699.00972337
2,13, 1,13, 0, 8, 0.00,60.00,Friday
213,198305926.53829345
5925,198305926.53829354
2,13, 1,13, 0, 9, 0.00,60.00,Friday
213,193478175.26689255
5925,193478175.2668926
2,13, 1,13, 0,10, 0.00,60.00,Friday
213,171534469.54973754
5925,171534469.54973754
2,13, 1,13, 0,11, 0.00,60.00,Friday
213,168756802.4055744
5925,168756802.4055744
2,13, 1,13, 0,12, 0.00,60.00,Friday
213,150595349.74887607
5925,150595349.74887607
2,13, 1,13, 0,13, 0.00,60.00,Friday
213,144710807.64666682
5925,144710807.64666682
2,13, 1,13, 0,14, 0.00,60.00,Friday
213,134725157.13553154
5925,134725157.13553154
2,13, 1,13, 0,15, 0.00,60.00,Friday
213,135988523.05715922
5925,135988523.05715922
2,13, 1,13, 0,16, 0.00,60.00,Friday
213,138557014.43011928
5925,138557014.43011928
2,13, 1,13, 0,17, 0.00,60.00,Friday
213,168915700.28634506
5925,168915700.28634524
2,13, 1,13, 0,18, 0.00,60.00,Friday
213,209347551.54830018
5925,209347551.54830045
2,13, 1,13, 0,19, 0.00,60.00,Friday
213,240531224.3165297
5925,240531224.31653002
2,13, 1,13, 0,20, 0.00,60.00,Friday
213,237445223.85947657
5925,237445223.85947692
2,13, 1,13, 0,21, 0.00,60.00,Friday
213,221690081.0396986
5925,221690081.03969887
2,13, 1,13, 0,22, 0.00,60.00,Friday
213,200065126.57929206
5925,200065126.57929236
2,13, 1,13, 0,23, 0.00,60.00,Friday
213,172599352.84589708
5925,172599352.84589708
2,13, 1,13, 0,24, 0.00,60.00,Friday
213,134059851.62638472
5925,134059851.6263847
2,14, 1,14, 0, 1, 0.00,60.00,Saturday
213,112660784.77496779
5925,112660784.77496776
2,14, 1,14, 0, 2, 0.00,60.00,Saturday
213,100889025.83060306
5925,100889025.83060305
2,14, 1,14, 0, 3, 0.00,60.00,Saturday
213,97162657.60065286
5925,97162657.60065287
2,14, 1,14, 0, 4, 0.00,60.00,Saturday
213,105992862.42341009
5925,105992862.42341009
2,14, 1,14, 0, 5, 0.00,60.00,Saturday
213,102938609.51845664
5925,102938609.51845667
2,14, 1,14, 0, 6, 0.00,60.00,Saturday
213,133094724.15990618
5925,133094724.15990621
2,14, 1,14, 0, 7, 0.00,60.00,Saturday
213,205806528.95633787
5925,205806528.95633787
2,14, 1,14, 0, 8, 0.00,60.00,Saturday
213,201351180.02873236
5925,201351180.02873248
2,14, 1,14, 0, 9, 0.00,60.00,Saturday
213,188515571.21782267
5925,188515571.21782264
2,14, 1,14, 0,10, 0.00,60.00,Saturday
213,175791014.10555458
5925,175791014.10555458
2,14, 1,14, 0,11, 0.00,60.00,Saturday
213,154591824.01993752
5925,154591824.0199375
2,14, 1,14, 0,12, 0.00,60.00,Saturday
213,148333689.33326304
5925,148333689.333263
2,14, 1,14, 0,13, 0.00,60.00,Saturday
213,145888449.9342543
5925,145888449.93425426
2,14, 1,14, 0,14, 0.00,60.00,Saturday
213,136959587.05479467
5925,136959587.05479464
2,14, 1,14, 0,15, 0.00,60.00,Saturday
213,123769481.4832723
5925,123769481.4832723
2,14, 1,14, 0,16, 0.00,60.00,Saturday
213,145958365.31613544
5925,145958365.31613544
2,14, 1,14, 0,17, 0.00,60.00,Saturday
213,168669188.07148567
5925,168669188.07148582
2,14, 1,14, 0,18, 0.00,60.00,Saturday
213,205563867.3743912
5925,205563867.37439156
2,14, 1,14, 0,19, 0.00,60.00,Saturday
213,245549102.56821704
5925,245549102.5682174
2,14, 1,14, 0,20, 0.00,60.00,Saturday
213,224928117.68692425
5925,224928117.6869246
2,14, 1,14, 0,21, 0.00,60.00,Saturday
213,236188693.7732274
5925,236188693.7732277
2,14, 1,14, 0,22, 0.00,60.00,Saturday
213,198945794.6845993
5925,198945794.68459955
2,14, 1,14, 0,23, 0.00,60.00,Saturday
213,172183028.51676613
5925,172183028.51676613
2,14, 1,14, 0,24, 0.00,60.00,Saturday
213,134277056.7765039
5925,134277056.77650386
2,15, 1,15, 0, 1, 0.00,60.00,Sunday
213,103163546.3232565
5925,103163546.32325648
2,15, 1,15, 0, 2, 0.00,60.00,Sunday
213,108772847.82213779
5925,108772847.82213779
2,15, 1,15, 0, 3, 0.00,60.00,Sunday
213,97273093.45956445
5925,97273093.45956446
2,15, 1,15, 0, 4, 0.00,60.00,Sunday
213,95680207.61993107
5925,95680207.61993107
2,15, 1,15, 0, 5, 0.00,60.00,Sunday
213,111780384.84277408
5925,111780384.8427741
2,15, 1,15, 0, 6, 0.00,60.00,Sunday
213,134717484.59169576
5925,134717484.5916958
2,15, 1,15, 0, 7, 0.00,60.00,Sunday
213,200506005.93322614
5925,200506005.93322614
2,15, 1,15, 0, 8, 0.00,60.00,Sunday
213,201230487.66317075
5925,201230487.66317087
2,15, 1,15, 0, 9, 0.00,60.00,Sunday
213,190319722.29848325
5925,190319722.29848325
2,15, 1,15, 0,10, 0.00,60.00,Sunday
213,174284664.17869878
5925,174284664.17869875
2,15, 1,15, 0,11, 0.00,60.00,Sunday
213,158636405.429406
5925,158636405.42940596
2,15, 1,15, 0,12, 0.00,60.00,Sunday
213,150578361.89518282
5925,150578361.8951828
2,15, 1,15, 0,13, 0.00,60.00,Sunday
213,145488176.45793954
5925,145488176.45793954
2,15, 1,15, 0,14, 0.00,60.00,Sunday
213,128393835.6058829
5925,128393835.60588288
2,15, 1,15, 0,15, 0.00,60.00,Sunday
213,137365165.0825023
5925,137365165.0825023
2,15, 1,15, 0,16, 0.00,60.00,Sunday
213,139420443.29927868
5925,139420443.29927868
2,15, 1,15, 0,17, 0.00,60.00,Sunday
213,161311087.34146404
5925,161311087.34146422