Program Version,EnergyPlus, Version 26.1.0-6f2e40d102, YMD=2026.04.15 00:22
1,5,Environment Title[],Latitude[deg],Longitude[deg],Time Zone[],Elevation[m]
2,8,Day of Simulation[],Month[],Day of Month[],DST Indicator[1=yes 0=no],Hour[],StartMinute[],EndMinute[],DayType
3,5,Cumulative Day of Simulation[],Month[],Day of Month[],DST Indicator[1=yes 0=no],DayType  ! When Daily Meters Requested
4,2,Cumulative Days of Simulation[],Month[]  ! When Monthly Meters Requested
5,1,Cumulative Days of Simulation[] ! When Run Period Meters Requested
6,1,Calendar Year of Simulation[] ! When Annual Meters Requested
213,1,Electricity:Facility [J] !Hourly
6085,1,ElectricityNet:Facility [J] !Hourly
End of Data Dictionary
1,RUNPERIOD 1,  28.11, 112.79,   8.00, 120.00
2,1, 1, 1, 0, 1, 0.00,60.00,Holiday
213,268232398.14523244
6085,268232398.14523238
2,1, 1, 1, 0, 2, 0.00,60.00,Holiday
213,256170140.32161275
6085,256170140.32161263
2,1, 1, 1, 0, 3, 0.00,60.00,Holiday
213,254977919.51057425
6085,254977919.51057416
2,1, 1, 1, 0, 4, 0.00,60.00,Holiday
213,254476458.32645202
6085,254476458.32645184
2,1, 1, 1, 0, 5, 0.00,60.00,Holiday
213,257492637.1886267
6085,257492637.18862665
2,1, 1, 1, 0, 6, 0.00,60.00,Holiday
213,272814117.4953802
6085,272814117.49538
2,1, 1, 1, 0, 7, 0.00,60.00,Holiday
213,293536019.71401834
6085,293536019.7140181
2,1, 1, 1, 0, 8, 0.00,60.00,Holiday
213,290350702.0907514
6085,290350702.0907512
2,1, 1, 1, 0, 9, 0.00,60.00,Holiday
213,282000015.3935654
6085,282000015.3935652
2,1, 1, 1, 0,10, 0.00,60.00,Holiday
213,276311961.9931257
6085,276311961.9931255
2,1, 1, 1, 0,11, 0.00,60.00,Holiday
213,264583689.2121336
6085,264583689.21213347
2,1, 1, 1, 0,12, 0.00,60.00,Holiday
213,277374456.50629795
6085,277374456.5062978
2,1, 1, 1, 0,13, 0.00,60.00,Holiday
213,277262016.72678965
6085,277262016.7267895
2,1, 1, 1, 0,14, 0.00,60.00,Holiday
213,266814812.06617343
6085,266814812.0661733
2,1, 1, 1, 0,15, 0.00,60.00,Holiday
213,275207423.91139954
6085,275207423.91139936
2,1, 1, 1, 0,16, 0.00,60.00,Holiday
213,288095565.50606596
6085,288095565.5060657
2,1, 1, 1, 0,17, 0.00,60.00,Holiday
213,308745631.18350166
6085,308745631.18350184
2,1, 1, 1, 0,18, 0.00,60.00,Holiday
213,362977280.8397708
6085,362977280.8397712
2,1, 1, 1, 0,19, 0.00,60.00,Holiday
213,378511100.1166909
6085,378511100.11669135
2,1, 1, 1, 0,20, 0.00,60.00,Holiday
213,365575146.37934136
6085,365575146.37934184
2,1, 1, 1, 0,21, 0.00,60.00,Holiday
213,360363460.78792024
6085,360363460.7879208
2,1, 1, 1, 0,22, 0.00,60.00,Holiday
213,341925869.75070876
6085,341925869.75070894
2,1, 1, 1, 0,23, 0.00,60.00,Holiday
213,310047434.76341695
6085,310047434.7634167
2,1, 1, 1, 0,24, 0.00,60.00,Holiday
213,290870054.29282665
6085,290870054.2928264
2,2, 1, 2, 0, 1, 0.00,60.00,Monday
213,273542715.06117797
6085,273542715.06117797
2,2, 1, 2, 0, 2, 0.00,60.00,Monday
213,263937920.26505464
6085,263937920.26505452
2,2, 1, 2, 0, 3, 0.00,60.00,Monday
213,261087980.97817922
6085,261087980.97817916
2,2, 1, 2, 0, 4, 0.00,60.00,Monday
213,260469334.35664567
6085,260469334.35664558
2,2, 1, 2, 0, 5, 0.00,60.00,Monday
213,263954765.49453127
6085,263954765.4945312
2,2, 1, 2, 0, 6, 0.00,60.00,Monday
213,279578251.6671313
6085,279578251.6671311
2,2, 1, 2, 0, 7, 0.00,60.00,Monday
213,305010127.5257196
6085,305010127.5257194
2,2, 1, 2, 0, 8, 0.00,60.00,Monday
213,303895757.2742803
6085,303895757.2742801
2,2, 1, 2, 0, 9, 0.00,60.00,Monday
213,301576915.07708246
6085,301576915.0770822
2,2, 1, 2, 0,10, 0.00,60.00,Monday
213,295866461.91888094
6085,295866461.9188808
2,2, 1, 2, 0,11, 0.00,60.00,Monday
213,286786754.47688806
6085,286786754.4768878
2,2, 1, 2, 0,12, 0.00,60.00,Monday
213,289068380.12563956
6085,289068380.1256393
2,2, 1, 2, 0,13, 0.00,60.00,Monday
213,286691373.0508884
6085,286691373.05088824
2,2, 1, 2, 0,14, 0.00,60.00,Monday
213,285302013.68413496
6085,285302013.68413484
2,2, 1, 2, 0,15, 0.00,60.00,Monday
213,280422401.72043467
6085,280422401.7204344
2,2, 1, 2, 0,16, 0.00,60.00,Monday
213,286033650.64267546
6085,286033650.6426752
2,2, 1, 2, 0,17, 0.00,60.00,Monday
213,320245835.54014325
6085,320245835.5401435
2,2, 1, 2, 0,18, 0.00,60.00,Monday
213,367867438.84895325
6085,367867438.8489537
2,2, 1, 2, 0,19, 0.00,60.00,Monday
213,386452905.69689995
6085,386452905.6969004
2,2, 1, 2, 0,20, 0.00,60.00,Monday
213,377312234.38219595
6085,377312234.3821963
2,2, 1, 2, 0,21, 0.00,60.00,Monday
213,369993738.27498126
6085,369993738.2749816
2,2, 1, 2, 0,22, 0.00,60.00,Monday
213,349487435.7041349
6085,349487435.704135
2,2, 1, 2, 0,23, 0.00,60.00,Monday
213,317995171.82240903
6085,317995171.8224088
2,2, 1, 2, 0,24, 0.00,60.00,Monday
213,298828249.47213924
6085,298828249.472139
2,3, 1, 3, 0, 1, 0.00,60.00,Tuesday
213,281701984.1928079
6085,281701984.1928078
2,3, 1, 3, 0, 2, 0.00,60.00,Tuesday
213,273053980.15675735
6085,273053980.15675735
2,3, 1, 3, 0, 3, 0.00,60.00,Tuesday
213,270896536.9468547
6085,270896536.94685465
2,3, 1, 3, 0, 4, 0.00,60.00,Tuesday
213,270154523.3164633
6085,270154523.3164631
2,3, 1, 3, 0, 5, 0.00,60.00,Tuesday
213,273628621.52430266
6085,273628621.5243025
2,3, 1, 3, 0, 6, 0.00,60.00,Tuesday
213,295178063.59585947
6085,295178063.5958592
2,3, 1, 3, 0, 7, 0.00,60.00,Tuesday
213,317840031.0511717
6085,317840031.0511715
2,3, 1, 3, 0, 8, 0.00,60.00,Tuesday
213,312476955.47072184
6085,312476955.47072166
2,3, 1, 3, 0, 9, 0.00,60.00,Tuesday
213,310099382.99158657
6085,310099382.9915863
2,3, 1, 3, 0,10, 0.00,60.00,Tuesday
213,301922574.17108685
6085,301922574.17108667
2,3, 1, 3, 0,11, 0.00,60.00,Tuesday
213,293979494.716022
6085,293979494.71602184
2,3, 1, 3, 0,12, 0.00,60.00,Tuesday
213,296460962.33789456
6085,296460962.3378943
2,3, 1, 3, 0,13, 0.00,60.00,Tuesday
213,292167458.1522937
6085,292167458.1522935
2,3, 1, 3, 0,14, 0.00,60.00,Tuesday
213,290585428.8936884
6085,290585428.8936881
2,3, 1, 3, 0,15, 0.00,60.00,Tuesday
213,289659897.1774169
6085,289659897.1774167
2,3, 1, 3, 0,16, 0.00,60.00,Tuesday
213,298026765.7259599
6085,298026765.7259597
2,3, 1, 3, 0,17, 0.00,60.00,Tuesday
213,332450570.32772267
6085,332450570.32772285
2,3, 1, 3, 0,18, 0.00,60.00,Tuesday
213,380006445.62493235
6085,380006445.6249327
2,3, 1, 3, 0,19, 0.00,60.00,Tuesday
213,394879537.58052003
6085,394879537.5805205
2,3, 1, 3, 0,20, 0.00,60.00,Tuesday
213,382771021.3251238
6085,382771021.32512426
2,3, 1, 3, 0,21, 0.00,60.00,Tuesday
213,375427310.9707603
6085,375427310.97076076
2,3, 1, 3, 0,22, 0.00,60.00,Tuesday
213,353871585.4988016
6085,353871585.4988017
2,3, 1, 3, 0,23, 0.00,60.00,Tuesday
213,320596742.61156243
6085,320596742.6115622
2,3, 1, 3, 0,24, 0.00,60.00,Tuesday
213,294521315.7328633
6085,294521315.7328632
2,4, 1, 4, 0, 1, 0.00,60.00,Wednesday
213,277353556.88701737
6085,277353556.88701737
2,4, 1, 4, 0, 2, 0.00,60.00,Wednesday
213,273680915.60537463
6085,273680915.60537446
2,4, 1, 4, 0, 3, 0.00,60.00,Wednesday
213,278180952.74667287
6085,278180952.74667275
2,4, 1, 4, 0, 4, 0.00,60.00,Wednesday
213,277443064.4528481
6085,277443064.45284796
2,4, 1, 4, 0, 5, 0.00,60.00,Wednesday
213,276323377.22565997
6085,276323377.2256599
2,4, 1, 4, 0, 6, 0.00,60.00,Wednesday
213,294437360.4559023
6085,294437360.45590204
2,4, 1, 4, 0, 7, 0.00,60.00,Wednesday
213,315520036.2786097
6085,315520036.27860945
2,4, 1, 4, 0, 8, 0.00,60.00,Wednesday
213,313407438.04090476
6085,313407438.0409046
2,4, 1, 4, 0, 9, 0.00,60.00,Wednesday
213,313212600.2402604
6085,313212600.2402602
2,4, 1, 4, 0,10, 0.00,60.00,Wednesday
213,303626612.0253015
6085,303626612.0253013
2,4, 1, 4, 0,11, 0.00,60.00,Wednesday
213,287120102.09741074
6085,287120102.09741056
2,4, 1, 4, 0,12, 0.00,60.00,Wednesday
213,275863520.09674656
6085,275863520.0967463
2,4, 1, 4, 0,13, 0.00,60.00,Wednesday
213,264600221.50391895
6085,264600221.50391874
2,4, 1, 4, 0,14, 0.00,60.00,Wednesday
213,261259596.22942495
6085,261259596.2294248
2,4, 1, 4, 0,15, 0.00,60.00,Wednesday
213,266744430.0271781
6085,266744430.02717796
2,4, 1, 4, 0,16, 0.00,60.00,Wednesday
213,275119953.68880486
6085,275119953.6888046
2,4, 1, 4, 0,17, 0.00,60.00,Wednesday
213,305194937.16998535
6085,305194937.16998553
2,4, 1, 4, 0,18, 0.00,60.00,Wednesday
213,360959019.1385325
6085,360959019.13853294
2,4, 1, 4, 0,19, 0.00,60.00,Wednesday
213,376901243.2092186
6085,376901243.2092191
2,4, 1, 4, 0,20, 0.00,60.00,Wednesday
213,359379914.9637603
6085,359379914.96376073
2,4, 1, 4, 0,21, 0.00,60.00,Wednesday
213,360352357.31534463
6085,360352357.31534505
2,4, 1, 4, 0,22, 0.00,60.00,Wednesday
213,341838966.2555258
6085,341838966.25552595
2,4, 1, 4, 0,23, 0.00,60.00,Wednesday
213,304672756.66563886
6085,304672756.6656387
2,4, 1, 4, 0,24, 0.00,60.00,Wednesday
213,285276235.20943666
6085,285276235.2094365
2,5, 1, 5, 0, 1, 0.00,60.00,Thursday
213,268635087.0956201
6085,268635087.0956201
2,5, 1, 5, 0, 2, 0.00,60.00,Thursday
213,259130450.7411019
6085,259130450.74110174
2,5, 1, 5, 0, 3, 0.00,60.00,Thursday
213,260555357.87393522
6085,260555357.87393513
2,5, 1, 5, 0, 4, 0.00,60.00,Thursday
213,258680271.26235974
6085,258680271.2623596
2,5, 1, 5, 0, 5, 0.00,60.00,Thursday
213,257003459.96094853
6085,257003459.96094844
2,5, 1, 5, 0, 6, 0.00,60.00,Thursday
213,279769890.6443525
6085,279769890.64435226
2,5, 1, 5, 0, 7, 0.00,60.00,Thursday
213,307652204.51790905
6085,307652204.5179089
2,5, 1, 5, 0, 8, 0.00,60.00,Thursday
213,304546176.71905524
6085,304546176.71905506
2,5, 1, 5, 0, 9, 0.00,60.00,Thursday
213,292640133.52950764
6085,292640133.5295074
2,5, 1, 5, 0,10, 0.00,60.00,Thursday
213,266975008.97545037
6085,266975008.9754502
2,5, 1, 5, 0,11, 0.00,60.00,Thursday
213,242325068.34354842
6085,242325068.34354827
2,5, 1, 5, 0,12, 0.00,60.00,Thursday
213,233432522.52954444
6085,233432522.52954426
2,5, 1, 5, 0,13, 0.00,60.00,Thursday
213,223187430.63623455
6085,223187430.6362343
2,5, 1, 5, 0,14, 0.00,60.00,Thursday
213,213561084.55753136
6085,213561084.55753118
2,5, 1, 5, 0,15, 0.00,60.00,Thursday
213,199953682.68356454
6085,199953682.68356434
2,5, 1, 5, 0,16, 0.00,60.00,Thursday
213,204173600.14433208
6085,204173600.14433187
2,5, 1, 5, 0,17, 0.00,60.00,Thursday
213,241908339.59492326
6085,241908339.5949232
2,5, 1, 5, 0,18, 0.00,60.00,Thursday
213,307145296.7215304
6085,307145296.72153085
2,5, 1, 5, 0,19, 0.00,60.00,Thursday
213,337082665.6541313
6085,337082665.65413177
2,5, 1, 5, 0,20, 0.00,60.00,Thursday
213,329910707.5379517
6085,329910707.5379521
2,5, 1, 5, 0,21, 0.00,60.00,Thursday
213,328248787.0347934
6085,328248787.03479385
2,5, 1, 5, 0,22, 0.00,60.00,Thursday
213,311033779.91218054
6085,311033779.9121807
2,5, 1, 5, 0,23, 0.00,60.00,Thursday
213,279155027.9514353
6085,279155027.95143515
2,5, 1, 5, 0,24, 0.00,60.00,Thursday
213,252985123.91381952
6085,252985123.9138194
2,6, 1, 6, 0, 1, 0.00,60.00,Friday
213,235927384.71427637
6085,235927384.71427634
2,6, 1, 6, 0, 2, 0.00,60.00,Friday
213,233934381.89591223
6085,233934381.89591214
2,6, 1, 6, 0, 3, 0.00,60.00,Friday
213,233729846.47710443
6085,233729846.47710434
2,6, 1, 6, 0, 4, 0.00,60.00,Friday
213,234080740.96473104
6085,234080740.96473095
2,6, 1, 6, 0, 5, 0.00,60.00,Friday
213,237394365.70635062
6085,237394365.70635048
2,6, 1, 6, 0, 6, 0.00,60.00,Friday
213,252966239.0427298
6085,252966239.04272968
2,6, 1, 6, 0, 7, 0.00,60.00,Friday
213,276316825.26557827
6085,276316825.2655781
2,6, 1, 6, 0, 8, 0.00,60.00,Friday
213,275491217.2101904
6085,275491217.2101902
2,6, 1, 6, 0, 9, 0.00,60.00,Friday
213,260285283.74879396
6085,260285283.74879375
2,6, 1, 6, 0,10, 0.00,60.00,Friday
213,225784172.64205188
6085,225784172.64205176
2,6, 1, 6, 0,11, 0.00,60.00,Friday
213,199371711.56509617
6085,199371711.56509602
2,6, 1, 6, 0,12, 0.00,60.00,Friday
213,197065378.9948603
6085,197065378.99486008
2,6, 1, 6, 0,13, 0.00,60.00,Friday
213,193386324.83183295
6085,193386324.83183277
2,6, 1, 6, 0,14, 0.00,60.00,Friday
213,188673618.82074407
6085,188673618.82074392
2,6, 1, 6, 0,15, 0.00,60.00,Friday
213,183390140.29166937
6085,183390140.2916692
2,6, 1, 6, 0,16, 0.00,60.00,Friday
213,193304694.5866645
6085,193304694.58666432
2,6, 1, 6, 0,17, 0.00,60.00,Friday
213,226863976.1114697
6085,226863976.11146954
2,6, 1, 6, 0,18, 0.00,60.00,Friday
213,275371326.0159378
6085,275371326.0159383
2,6, 1, 6, 0,19, 0.00,60.00,Friday
213,306107007.61870176
6085,306107007.61870223
2,6, 1, 6, 0,20, 0.00,60.00,Friday
213,296780860.86338186
6085,296780860.86338234
2,6, 1, 6, 0,21, 0.00,60.00,Friday
213,293946777.97192085
6085,293946777.9719213
2,6, 1, 6, 0,22, 0.00,60.00,Friday
213,280178673.5498309
6085,280178673.54983115
2,6, 1, 6, 0,23, 0.00,60.00,Friday
213,252382864.75852346
6085,252382864.7585232
2,6, 1, 6, 0,24, 0.00,60.00,Friday
213,233715098.34733114
6085,233715098.34733096
2,7, 1, 7, 0, 1, 0.00,60.00,Saturday
213,230270165.12636143
6085,230270165.12636137
2,7, 1, 7, 0, 2, 0.00,60.00,Saturday
213,236979112.6362567
6085,236979112.63625658
2,7, 1, 7, 0, 3, 0.00,60.00,Saturday
213,240351582.64173037
6085,240351582.64173028
2,7, 1, 7, 0, 4, 0.00,60.00,Saturday
213,242287615.24976104
6085,242287615.24976093
2,7, 1, 7, 0, 5, 0.00,60.00,Saturday
213,248408934.30662137
6085,248408934.3066213
2,7, 1, 7, 0, 6, 0.00,60.00,Saturday
213,268773478.31561744
6085,268773478.3156172
2,7, 1, 7, 0, 7, 0.00,60.00,Saturday
213,294048457.8577531
6085,294048457.857753
2,7, 1, 7, 0, 8, 0.00,60.00,Saturday
213,291876297.6625011
6085,291876297.6625009
2,7, 1, 7, 0, 9, 0.00,60.00,Saturday
213,265178062.40488553
6085,265178062.40488532
2,7, 1, 7, 0,10, 0.00,60.00,Saturday
213,235283913.73469153
6085,235283913.73469132
2,7, 1, 7, 0,11, 0.00,60.00,Saturday
213,210842643.7372276
6085,210842643.73722744
2,7, 1, 7, 0,12, 0.00,60.00,Saturday
213,200555351.69825974
6085,200555351.69825956
2,7, 1, 7, 0,13, 0.00,60.00,Saturday
213,195434698.9718639
6085,195434698.9718637
2,7, 1, 7, 0,14, 0.00,60.00,Saturday
213,189344201.37010443
6085,189344201.37010422
2,7, 1, 7, 0,15, 0.00,60.00,Saturday
213,184590201.99215537
6085,184590201.9921552
2,7, 1, 7, 0,16, 0.00,60.00,Saturday
213,189690721.3045082
6085,189690721.3045081
2,7, 1, 7, 0,17, 0.00,60.00,Saturday
213,227445490.8600939
6085,227445490.8600937
2,7, 1, 7, 0,18, 0.00,60.00,Saturday
213,286437542.72309905
6085,286437542.7230995
2,7, 1, 7, 0,19, 0.00,60.00,Saturday
213,313438230.6858629
6085,313438230.6858633
2,7, 1, 7, 0,20, 0.00,60.00,Saturday
213,304303446.872441
6085,304303446.8724414
2,7, 1, 7, 0,21, 0.00,60.00,Saturday
213,302203681.1852414
6085,302203681.185242
2,7, 1, 7, 0,22, 0.00,60.00,Saturday
213,286940432.455214
6085,286940432.4552142
2,7, 1, 7, 0,23, 0.00,60.00,Saturday
213,259033415.56954178
6085,259033415.56954154
2,7, 1, 7, 0,24, 0.00,60.00,Saturday
213,239356066.74937162
6085,239356066.74937138
2,8, 1, 8, 0, 1, 0.00,60.00,Sunday
213,228515366.53072667
6085,228515366.5307266
2,8, 1, 8, 0, 2, 0.00,60.00,Sunday
213,231413897.06503424
6085,231413897.0650341
2,8, 1, 8, 0, 3, 0.00,60.00,Sunday
213,236308590.1581552
6085,236308590.1581552
2,8, 1, 8, 0, 4, 0.00,60.00,Sunday
213,239801858.54204026
6085,239801858.5420401
2,8, 1, 8, 0, 5, 0.00,60.00,Sunday
213,245798925.42354977
6085,245798925.4235497
2,8, 1, 8, 0, 6, 0.00,60.00,Sunday
213,263561050.35416517
6085,263561050.35416496
2,8, 1, 8, 0, 7, 0.00,60.00,Sunday
213,290002847.7160268
6085,290002847.7160266
2,8, 1, 8, 0, 8, 0.00,60.00,Sunday
213,292067182.6446712
6085,292067182.64467096
2,8, 1, 8, 0, 9, 0.00,60.00,Sunday
213,260698882.79256284
6085,260698882.79256266
2,8, 1, 8, 0,10, 0.00,60.00,Sunday
213,226812479.08106342
6085,226812479.08106327
2,8, 1, 8, 0,11, 0.00,60.00,Sunday
213,202583753.0867022
6085,202583753.08670202
2,8, 1, 8, 0,12, 0.00,60.00,Sunday
213,195809956.04866633
6085,195809956.04866615
2,8, 1, 8, 0,13, 0.00,60.00,Sunday
213,193320297.50838116
6085,193320297.50838098
2,8, 1, 8, 0,14, 0.00,60.00,Sunday
213,189567631.73407608
6085,189567631.7340759
2,8, 1, 8, 0,15, 0.00,60.00,Sunday
213,195544765.3285011
6085,195544765.32850096
2,8, 1, 8, 0,16, 0.00,60.00,Sunday
213,196419317.99370623
6085,196419317.99370605
2,8, 1, 8, 0,17, 0.00,60.00,Sunday
213,228587926.31513202
6085,228587926.31513175
2,8, 1, 8, 0,18, 0.00,60.00,Sunday
213,276050772.3821818
6085,276050772.3821823
2,8, 1, 8, 0,19, 0.00,60.00,Sunday
213,303106051.30021
6085,303106051.3002105
2,8, 1, 8, 0,20, 0.00,60.00,Sunday
213,293318686.93768406
6085,293318686.93768454
2,8, 1, 8, 0,21, 0.00,60.00,Sunday
213,292202991.3909434
6085,292202991.3909439
2,8, 1, 8, 0,22, 0.00,60.00,Sunday
213,277511565.9764198
6085,277511565.9764199
2,8, 1, 8, 0,23, 0.00,60.00,Sunday
213,246993850.73344445
6085,246993850.73344427
2,8, 1, 8, 0,24, 0.00,60.00,Sunday
213,222494488.9110379
6085,222494488.9110377
2,9, 1, 9, 0, 1, 0.00,60.00,Monday
213,210730869.82894298
6085,210730869.82894295
2,9, 1, 9, 0, 2, 0.00,60.00,Monday
213,218196248.14788598
6085,218196248.14788583
2,9, 1, 9, 0, 3, 0.00,60.00,Monday
213,224088869.03501648
6085,224088869.03501636
2,9, 1, 9, 0, 4, 0.00,60.00,Monday
213,225544868.9117545
6085,225544868.9117544
2,9, 1, 9, 0, 5, 0.00,60.00,Monday
213,237915042.00877446
6085,237915042.00877434
2,9, 1, 9, 0, 6, 0.00,60.00,Monday
213,260403552.46190068
6085,260403552.4619005
2,9, 1, 9, 0, 7, 0.00,60.00,Monday
213,290713934.39130616
6085,290713934.391306
2,9, 1, 9, 0, 8, 0.00,60.00,Monday
213,293596031.8687582
6085,293596031.8687581
2,9, 1, 9, 0, 9, 0.00,60.00,Monday
213,268317432.50140876
6085,268317432.50140864
2,9, 1, 9, 0,10, 0.00,60.00,Monday
213,231557023.19183302
6085,231557023.1918329
2,9, 1, 9, 0,11, 0.00,60.00,Monday
213,205196672.57822862
6085,205196672.5782284
2,9, 1, 9, 0,12, 0.00,60.00,Monday
213,194229294.08987823
6085,194229294.08987796
2,9, 1, 9, 0,13, 0.00,60.00,Monday
213,199500393.30926967
6085,199500393.3092695
2,9, 1, 9, 0,14, 0.00,60.00,Monday
213,214020820.99632502
6085,214020820.99632484
2,9, 1, 9, 0,15, 0.00,60.00,Monday
213,221330519.16515747
6085,221330519.16515732
2,9, 1, 9, 0,16, 0.00,60.00,Monday
213,228867966.8614403
6085,228867966.86144015
2,9, 1, 9, 0,17, 0.00,60.00,Monday
213,248914670.00632736
6085,248914670.00632745
2,9, 1, 9, 0,18, 0.00,60.00,Monday
213,271892074.17357516
6085,271892074.17357564
2,9, 1, 9, 0,19, 0.00,60.00,Monday
213,296463132.9337819
6085,296463132.93378246
2,9, 1, 9, 0,20, 0.00,60.00,Monday
213,289373001.24990577
6085,289373001.24990624
2,9, 1, 9, 0,21, 0.00,60.00,Monday
213,288487747.35403955
6085,288487747.35403997
2,9, 1, 9, 0,22, 0.00,60.00,Monday
213,273025687.16889787
6085,273025687.168898
2,9, 1, 9, 0,23, 0.00,60.00,Monday
213,241450742.55118856
6085,241450742.55118835
2,9, 1, 9, 0,24, 0.00,60.00,Monday
213,223454897.21113724
6085,223454897.21113703
2,10, 1,10, 0, 1, 0.00,60.00,Tuesday
213,213575428.09381813
6085,213575428.09381813
2,10, 1,10, 0, 2, 0.00,60.00,Tuesday
213,213896391.3717315
6085,213896391.3717314
2,10, 1,10, 0, 3, 0.00,60.00,Tuesday
213,216325163.2458187
6085,216325163.24581856
2,10, 1,10, 0, 4, 0.00,60.00,Tuesday
213,220878449.2705835
6085,220878449.27058336
2,10, 1,10, 0, 5, 0.00,60.00,Tuesday
213,229598386.5591403
6085,229598386.5591402
2,10, 1,10, 0, 6, 0.00,60.00,Tuesday
213,251889294.787642
6085,251889294.78764182
2,10, 1,10, 0, 7, 0.00,60.00,Tuesday
213,282188477.26008177
6085,282188477.2600815
2,10, 1,10, 0, 8, 0.00,60.00,Tuesday
213,285896965.56880903
6085,285896965.56880873
2,10, 1,10, 0, 9, 0.00,60.00,Tuesday
213,266005294.13440222
6085,266005294.134402
2,10, 1,10, 0,10, 0.00,60.00,Tuesday
213,232688659.23210022
6085,232688659.23210004
2,10, 1,10, 0,11, 0.00,60.00,Tuesday
213,201110131.1638422
6085,201110131.16384205
2,10, 1,10, 0,12, 0.00,60.00,Tuesday
213,191934943.67185163
6085,191934943.67185143
2,10, 1,10, 0,13, 0.00,60.00,Tuesday
213,203732347.7529909
6085,203732347.75299078
2,10, 1,10, 0,14, 0.00,60.00,Tuesday
213,215160761.58893088
6085,215160761.58893073
2,10, 1,10, 0,15, 0.00,60.00,Tuesday
213,215486413.31598446
6085,215486413.31598428
2,10, 1,10, 0,16, 0.00,60.00,Tuesday
213,157952780.16742152
6085,157952780.16742134
2,10, 1,10, 0,17, 0.00,60.00,Tuesday
213,196337339.04843011
6085,196337339.04842994
2,10, 1,10, 0,18, 0.00,60.00,Tuesday
213,251943685.58694965
6085,251943685.58695006
2,10, 1,10, 0,19, 0.00,60.00,Tuesday
213,276837777.09457207
6085,276837777.09457254
2,10, 1,10, 0,20, 0.00,60.00,Tuesday
213,278274970.64805967
6085,278274970.6480601
2,10, 1,10, 0,21, 0.00,60.00,Tuesday
213,278475370.47785634
6085,278475370.4778568
2,10, 1,10, 0,22, 0.00,60.00,Tuesday
213,261815137.15334815
6085,261815137.15334827
2,10, 1,10, 0,23, 0.00,60.00,Tuesday
213,227858918.04779083
6085,227858918.0477906
2,10, 1,10, 0,24, 0.00,60.00,Tuesday
213,200146954.49445227
6085,200146954.49445206
2,11, 1,11, 0, 1, 0.00,60.00,Wednesday
213,181783606.41399273
6085,181783606.41399267
2,11, 1,11, 0, 2, 0.00,60.00,Wednesday
213,178152517.6206843
6085,178152517.62068412
2,11, 1,11, 0, 3, 0.00,60.00,Wednesday
213,180221522.01388106
6085,180221522.01388088
2,11, 1,11, 0, 4, 0.00,60.00,Wednesday
213,180461166.79053152
6085,180461166.79053137
2,11, 1,11, 0, 5, 0.00,60.00,Wednesday
213,181138361.44255498
6085,181138361.44255483
2,11, 1,11, 0, 6, 0.00,60.00,Wednesday
213,205191868.69164073
6085,205191868.69164053
2,11, 1,11, 0, 7, 0.00,60.00,Wednesday
213,230164469.66668695
6085,230164469.6666867
2,11, 1,11, 0, 8, 0.00,60.00,Wednesday
213,228157844.79945165
6085,228157844.79945147
2,11, 1,11, 0, 9, 0.00,60.00,Wednesday
213,228386196.60353532
6085,228386196.60353512
2,11, 1,11, 0,10, 0.00,60.00,Wednesday
213,219302585.81020886
6085,219302585.81020868
2,11, 1,11, 0,11, 0.00,60.00,Wednesday
213,203039963.906717
6085,203039963.90671682
2,11, 1,11, 0,12, 0.00,60.00,Wednesday
213,212328963.02929845
6085,212328963.02929825
2,11, 1,11, 0,13, 0.00,60.00,Wednesday
213,209314401.4395255
6085,209314401.43952537
2,11, 1,11, 0,14, 0.00,60.00,Wednesday
213,201045030.62766626
6085,201045030.62766606
2,11, 1,11, 0,15, 0.00,60.00,Wednesday
213,211690164.64734486
6085,211690164.6473447
2,11, 1,11, 0,16, 0.00,60.00,Wednesday
213,228871225.247517
6085,228871225.24751678
2,11, 1,11, 0,17, 0.00,60.00,Wednesday
213,264527126.17334992
6085,264527126.17335013
2,11, 1,11, 0,18, 0.00,60.00,Wednesday
213,318559218.9516472
6085,318559218.95164764
2,11, 1,11, 0,19, 0.00,60.00,Wednesday
213,339460553.40081894
6085,339460553.4008194
2,11, 1,11, 0,20, 0.00,60.00,Wednesday
213,326932075.5542031
6085,326932075.5542035
2,11, 1,11, 0,21, 0.00,60.00,Wednesday
213,322128900.8505287
6085,322128900.85052925
2,11, 1,11, 0,22, 0.00,60.00,Wednesday
213,305156480.00531834
6085,305156480.00531846
2,11, 1,11, 0,23, 0.00,60.00,Wednesday
213,276346456.3237416
6085,276346456.32374144
2,11, 1,11, 0,24, 0.00,60.00,Wednesday
213,257199146.98811245
6085,257199146.98811227
2,12, 1,12, 0, 1, 0.00,60.00,Thursday
213,243658078.99323347
6085,243658078.99323344
2,12, 1,12, 0, 2, 0.00,60.00,Thursday
213,241937463.02105123
6085,241937463.02105114
2,12, 1,12, 0, 3, 0.00,60.00,Thursday
213,241607118.4596401
6085,241607118.45963997
2,12, 1,12, 0, 4, 0.00,60.00,Thursday
213,241083329.74078205
6085,241083329.74078196
2,12, 1,12, 0, 5, 0.00,60.00,Thursday
213,244489783.40103242
6085,244489783.40103233
2,12, 1,12, 0, 6, 0.00,60.00,Thursday
213,267613181.96221796
6085,267613181.96221772
2,12, 1,12, 0, 7, 0.00,60.00,Thursday
213,292640244.3028103
6085,292640244.30281013
2,12, 1,12, 0, 8, 0.00,60.00,Thursday
213,289206131.93370295
6085,289206131.9337027
2,12, 1,12, 0, 9, 0.00,60.00,Thursday
213,291996206.2516035
6085,291996206.25160336
2,12, 1,12, 0,10, 0.00,60.00,Thursday
213,278556358.39723957
6085,278556358.3972394
2,12, 1,12, 0,11, 0.00,60.00,Thursday
213,251633827.7923346
6085,251633827.79233438
2,12, 1,12, 0,12, 0.00,60.00,Thursday
213,255061318.8497452
6085,255061318.84974504
2,12, 1,12, 0,13, 0.00,60.00,Thursday
213,248198394.32779458
6085,248198394.32779437
2,12, 1,12, 0,14, 0.00,60.00,Thursday
213,236114722.35178685
6085,236114722.35178667
2,12, 1,12, 0,15, 0.00,60.00,Thursday
213,245612865.5701804
6085,245612865.57018024
2,12, 1,12, 0,16, 0.00,60.00,Thursday
213,257940720.8882548
6085,257940720.88825464
2,12, 1,12, 0,17, 0.00,60.00,Thursday
213,293162472.06243885
6085,293162472.062439
2,12, 1,12, 0,18, 0.00,60.00,Thursday
213,349380798.44743955
6085,349380798.44744
2,12, 1,12, 0,19, 0.00,60.00,Thursday
213,363170154.18622255
6085,363170154.1862229
2,12, 1,12, 0,20, 0.00,60.00,Thursday
213,345886658.7044085
6085,345886658.7044089
2,12, 1,12, 0,21, 0.00,60.00,Thursday
213,346119009.2984124
6085,346119009.29841286
2,12, 1,12, 0,22, 0.00,60.00,Thursday
213,327416211.43534565
6085,327416211.4353459
2,12, 1,12, 0,23, 0.00,60.00,Thursday
213,291089127.29784507
6085,291089127.2978449
2,12, 1,12, 0,24, 0.00,60.00,Thursday
213,272040084.4525547
6085,272040084.4525546
2,13, 1,13, 0, 1, 0.00,60.00,Friday
213,259908524.96650717
6085,259908524.96650714
2,13, 1,13, 0, 2, 0.00,60.00,Friday
213,255055491.89616412
6085,255055491.89616406
2,13, 1,13, 0, 3, 0.00,60.00,Friday
213,260446605.4701423
6085,260446605.4701422
2,13, 1,13, 0, 4, 0.00,60.00,Friday
213,259818613.90625882
6085,259818613.90625867
2,13, 1,13, 0, 5, 0.00,60.00,Friday
213,257217290.43886274
6085,257217290.4388627
2,13, 1,13, 0, 6, 0.00,60.00,Friday
213,278982724.0043218
6085,278982724.00432163
2,13, 1,13, 0, 7, 0.00,60.00,Friday
213,301720770.90262693
6085,301720770.90262675
2,13, 1,13, 0, 8, 0.00,60.00,Friday
213,297731283.32562566
6085,297731283.3256255
2,13, 1,13, 0, 9, 0.00,60.00,Friday
213,296304585.60270566
6085,296304585.6027054
2,13, 1,13, 0,10, 0.00,60.00,Friday
213,282158603.77953786
6085,282158603.7795377
2,13, 1,13, 0,11, 0.00,60.00,Friday
213,265141558.28714564
6085,265141558.2871455
2,13, 1,13, 0,12, 0.00,60.00,Friday
213,262696509.47156236
6085,262696509.47156218
2,13, 1,13, 0,13, 0.00,60.00,Friday
213,256572583.08343005
6085,256572583.08342987
2,13, 1,13, 0,14, 0.00,60.00,Friday
213,255393889.43869734
6085,255393889.43869713
2,13, 1,13, 0,15, 0.00,60.00,Friday
213,255855568.89853317
6085,255855568.8985329
2,13, 1,13, 0,16, 0.00,60.00,Friday
213,265323579.32036182
6085,265323579.32036155
2,13, 1,13, 0,17, 0.00,60.00,Friday
213,300078693.214731
6085,300078693.2147312
2,13, 1,13, 0,18, 0.00,60.00,Friday
213,350706596.95071316
6085,350706596.9507137
2,13, 1,13, 0,19, 0.00,60.00,Friday
213,367457953.9660572
6085,367457953.96605754
2,13, 1,13, 0,20, 0.00,60.00,Friday
213,354733813.2640028
6085,354733813.2640033
2,13, 1,13, 0,21, 0.00,60.00,Friday
213,355877107.6563631
6085,355877107.6563636
2,13, 1,13, 0,22, 0.00,60.00,Friday
213,337723429.58605415
6085,337723429.5860544
2,13, 1,13, 0,23, 0.00,60.00,Friday
213,301567115.53239083
6085,301567115.53239065
2,13, 1,13, 0,24, 0.00,60.00,Friday
213,276219491.0866228
6085,276219491.08662254
2,14, 1,14, 0, 1, 0.00,60.00,Saturday
213,263573340.04287714
6085,263573340.04287708
2,14, 1,14, 0, 2, 0.00,60.00,Saturday
213,262193380.44548112
6085,262193380.445481
2,14, 1,14, 0, 3, 0.00,60.00,Saturday
213,266095214.95767117
6085,266095214.95767105
2,14, 1,14, 0, 4, 0.00,60.00,Saturday
213,265338408.74540347
6085,265338408.74540335
2,14, 1,14, 0, 5, 0.00,60.00,Saturday
213,264013113.51767835
6085,264013113.51767826
2,14, 1,14, 0, 6, 0.00,60.00,Saturday
213,284589134.72159475
6085,284589134.72159463
2,14, 1,14, 0, 7, 0.00,60.00,Saturday
213,306360936.44230866
6085,306360936.4423085
2,14, 1,14, 0, 8, 0.00,60.00,Saturday
213,300205043.5778031
6085,300205043.5778029
2,14, 1,14, 0, 9, 0.00,60.00,Saturday
213,292364652.72748554
6085,292364652.7274853
2,14, 1,14, 0,10, 0.00,60.00,Saturday
213,278975256.4151538
6085,278975256.4151536
2,14, 1,14, 0,11, 0.00,60.00,Saturday
213,256969833.826405
6085,256969833.82640475
2,14, 1,14, 0,12, 0.00,60.00,Saturday
213,267796535.8182515
6085,267796535.8182513
2,14, 1,14, 0,13, 0.00,60.00,Saturday
213,264220253.5629611
6085,264220253.56296098
2,14, 1,14, 0,14, 0.00,60.00,Saturday
213,251683839.88153505
6085,251683839.88153484
2,14, 1,14, 0,15, 0.00,60.00,Saturday
213,262328370.08965904
6085,262328370.08965886
2,14, 1,14, 0,16, 0.00,60.00,Saturday
213,275322679.84430504
6085,275322679.8443048
2,14, 1,14, 0,17, 0.00,60.00,Saturday
213,299747902.226589
6085,299747902.2265892
2,14, 1,14, 0,18, 0.00,60.00,Saturday
213,358130947.9245746
6085,358130947.92457515
2,14, 1,14, 0,19, 0.00,60.00,Saturday
213,380919159.08234364
6085,380919159.0823442
2,14, 1,14, 0,20, 0.00,60.00,Saturday
213,364275736.0691179
6085,364275736.06911826
2,14, 1,14, 0,21, 0.00,60.00,Saturday
213,362230574.11268395
6085,362230574.11268437
2,14, 1,14, 0,22, 0.00,60.00,Saturday
213,340520315.6260662
6085,340520315.6260664
2,14, 1,14, 0,23, 0.00,60.00,Saturday
213,303664532.2859291
6085,303664532.2859289
2,14, 1,14, 0,24, 0.00,60.00,Saturday
213,279302974.9424577
6085,279302974.94245744
2,15, 1,15, 0, 1, 0.00,60.00,Sunday
213,262613781.7267017
6085,262613781.72670162
2,15, 1,15, 0, 2, 0.00,60.00,Sunday
213,258483709.29233146
6085,258483709.29233134
2,15, 1,15, 0, 3, 0.00,60.00,Sunday
213,262839396.20802677
6085,262839396.20802668
2,15, 1,15, 0, 4, 0.00,60.00,Sunday
213,262089100.66636032
6085,262089100.66636017
2,15, 1,15, 0, 5, 0.00,60.00,Sunday
213,260668241.51712626
6085,260668241.5171262
2,15, 1,15, 0, 6, 0.00,60.00,Sunday
213,274315050.90916413
6085,274315050.90916395
2,15, 1,15, 0, 7, 0.00,60.00,Sunday
213,298424408.8659956
6085,298424408.8659954
2,15, 1,15, 0, 8, 0.00,60.00,Sunday
213,300724070.14392674
6085,300724070.1439265
2,15, 1,15, 0, 9, 0.00,60.00,Sunday
213,300114681.2831512
6085,300114681.28315103
2,15, 1,15, 0,10, 0.00,60.00,Sunday
213,293558610.4426966
6085,293558610.44269633
2,15, 1,15, 0,11, 0.00,60.00,Sunday
213,275156690.63375324
6085,275156690.633753
2,15, 1,15, 0,12, 0.00,60.00,Sunday
213,276816714.0247828
6085,276816714.0247826
2,15, 1,15, 0,13, 0.00,60.00,Sunday
213,274774408.2186291
6085,274774408.2186289
2,15, 1,15, 0,14, 0.00,60.00,Sunday
213,271468545.0461567
6085,271468545.0461565
2,15, 1,15, 0,15, 0.00,60.00,Sunday
213,271296137.4012203
6085,271296137.4012201
2,15, 1,15, 0,16, 0.00,60.00,Sunday
213,284537976.657014
6085,284537976.6570138
2,15, 1,15, 0,17, 0.00,60.00,Sunday
213,315177253.96535176
6085,315177253.965352
2,15, 1,15, 0,18, 0.00,60.00,Sunday
213,360017436.72225654