Program Version,EnergyPlus, Version 26.1.0-6f2e40d102, YMD=2026.04.15 00:13
1,5,Environment Title[],Latitude[deg],Longitude[deg],Time Zone[],Elevation[m]
2,8,Day of Simulation[],Month[],Day of Month[],DST Indicator[1=yes 0=no],Hour[],StartMinute[],EndMinute[],DayType
3,5,Cumulative Day of Simulation[],Month[],Day of Month[],DST Indicator[1=yes 0=no],DayType  ! When Daily Meters Requested
4,2,Cumulative Days of Simulation[],Month[]  ! When Monthly Meters Requested
5,1,Cumulative Days of Simulation[] ! When Run Period Meters Requested
6,1,Calendar Year of Simulation[] ! When Annual Meters Requested
213,1,Electricity:Facility [J] !Hourly
5925,1,ElectricityNet:Facility [J] !Hourly
End of Data Dictionary
1,RUNPERIOD 1,  28.11, 112.79,   8.00, 120.00
2,1, 1, 1, 0, 1, 0.00,60.00,Sunday
213,88654500.38248242
5925,88654500.38248241
2,1, 1, 1, 0, 2, 0.00,60.00,Sunday
213,92332297.10561988
5925,92332297.10561988
2,1, 1, 1, 0, 3, 0.00,60.00,Sunday
213,97246435.82147877
5925,97246435.82147878
2,1, 1, 1, 0, 4, 0.00,60.00,Sunday
213,90584676.25363562
5925,90584676.25363559
2,1, 1, 1, 0, 5, 0.00,60.00,Sunday
213,100547641.98631161
5925,100547641.9863116
2,1, 1, 1, 0, 6, 0.00,60.00,Sunday
213,127222405.32886784
5925,127222405.32886784
2,1, 1, 1, 0, 7, 0.00,60.00,Sunday
213,192503694.9750386
5925,192503694.97503856
2,1, 1, 1, 0, 8, 0.00,60.00,Sunday
213,196415571.22031114
5925,196415571.22031116
2,1, 1, 1, 0, 9, 0.00,60.00,Sunday
213,176320630.27175447
5925,176320630.27175447
2,1, 1, 1, 0,10, 0.00,60.00,Sunday
213,156634781.22094524
5925,156634781.22094524
2,1, 1, 1, 0,11, 0.00,60.00,Sunday
213,157517703.02716792
5925,157517703.0271679
2,1, 1, 1, 0,12, 0.00,60.00,Sunday
213,139452568.7773674
5925,139452568.7773674
2,1, 1, 1, 0,13, 0.00,60.00,Sunday
213,128495766.35915147
5925,128495766.35915151
2,1, 1, 1, 0,14, 0.00,60.00,Sunday
213,133706267.44489998
5925,133706267.44489998
2,1, 1, 1, 0,15, 0.00,60.00,Sunday
213,113295592.83794782
5925,113295592.83794782
2,1, 1, 1, 0,16, 0.00,60.00,Sunday
213,139247925.1476243
5925,139247925.1476243
2,1, 1, 1, 0,17, 0.00,60.00,Sunday
213,158899807.33740675
5925,158899807.33740684
2,1, 1, 1, 0,18, 0.00,60.00,Sunday
213,199515989.083043
5925,199515989.08304334
2,1, 1, 1, 0,19, 0.00,60.00,Sunday
213,237485326.96765375
5925,237485326.96765408
2,1, 1, 1, 0,20, 0.00,60.00,Sunday
213,221053866.53296945
5925,221053866.53296983
2,1, 1, 1, 0,21, 0.00,60.00,Sunday
213,224158124.01413047
5925,224158124.01413083
2,1, 1, 1, 0,22, 0.00,60.00,Sunday
213,194980143.497718
5925,194980143.4977182
2,1, 1, 1, 0,23, 0.00,60.00,Sunday
213,165882247.41775727
5925,165882247.4177573
2,1, 1, 1, 0,24, 0.00,60.00,Sunday
213,127962102.65888245
5925,127962102.65888245
2,2, 1, 2, 0, 1, 0.00,60.00,Holiday
213,96262297.76369792
5925,96262297.76369792
2,2, 1, 2, 0, 2, 0.00,60.00,Holiday
213,99277082.10205457
5925,99277082.10205457
2,2, 1, 2, 0, 3, 0.00,60.00,Holiday
213,90973538.73787111
5925,90973538.7378711
2,2, 1, 2, 0, 4, 0.00,60.00,Holiday
213,85183227.90319663
5925,85183227.90319663
2,2, 1, 2, 0, 5, 0.00,60.00,Holiday
213,101277444.56055896
5925,101277444.56055896
2,2, 1, 2, 0, 6, 0.00,60.00,Holiday
213,127964169.73101306
5925,127964169.73101303
2,2, 1, 2, 0, 7, 0.00,60.00,Holiday
213,193769402.5863169
5925,193769402.58631688
2,2, 1, 2, 0, 8, 0.00,60.00,Holiday
213,197896495.52741784
5925,197896495.52741787
2,2, 1, 2, 0, 9, 0.00,60.00,Holiday
213,177480684.190108
5925,177480684.190108
2,2, 1, 2, 0,10, 0.00,60.00,Holiday
213,157732112.71333066
5925,157732112.71333066
2,2, 1, 2, 0,11, 0.00,60.00,Holiday
213,158838810.6193882
5925,158838810.6193882
2,2, 1, 2, 0,12, 0.00,60.00,Holiday
213,145300395.38308334
5925,145300395.38308334
2,2, 1, 2, 0,13, 0.00,60.00,Holiday
213,137016609.95839766
5925,137016609.95839766
2,2, 1, 2, 0,14, 0.00,60.00,Holiday
213,121573300.74606241
5925,121573300.74606237
2,2, 1, 2, 0,15, 0.00,60.00,Holiday
213,126529941.64204082
5925,126529941.64204079
2,2, 1, 2, 0,16, 0.00,60.00,Holiday
213,125266386.14487752
5925,125266386.14487752
2,2, 1, 2, 0,17, 0.00,60.00,Holiday
213,166432940.81702486
5925,166432940.81702498
2,2, 1, 2, 0,18, 0.00,60.00,Holiday
213,196609129.17690742
5925,196609129.17690778
2,2, 1, 2, 0,19, 0.00,60.00,Holiday
213,238286396.09721386
5925,238286396.09721422
2,2, 1, 2, 0,20, 0.00,60.00,Holiday
213,228284954.90291408
5925,228284954.9029144
2,2, 1, 2, 0,21, 0.00,60.00,Holiday
213,214853463.97696579
5925,214853463.97696614
2,2, 1, 2, 0,22, 0.00,60.00,Holiday
213,192415733.72793588
5925,192415733.72793603
2,2, 1, 2, 0,23, 0.00,60.00,Holiday
213,166619785.1628169
5925,166619785.1628169
2,2, 1, 2, 0,24, 0.00,60.00,Holiday
213,128727697.97698994
5925,128727697.97698992
2,3, 1, 3, 0, 1, 0.00,60.00,Tuesday
213,110150458.09259975
5925,110150458.09259973
2,3, 1, 3, 0, 2, 0.00,60.00,Tuesday
213,94039361.98224798
5925,94039361.98224798
2,3, 1, 3, 0, 3, 0.00,60.00,Tuesday
213,85782815.81629908
5925,85782815.81629908
2,3, 1, 3, 0, 4, 0.00,60.00,Tuesday
213,98256500.43983425
5925,98256500.43983425
2,3, 1, 3, 0, 5, 0.00,60.00,Tuesday
213,96088864.0015867
5925,96088864.0015867
2,3, 1, 3, 0, 6, 0.00,60.00,Tuesday
213,129461954.0125196
5925,129461954.0125196
2,3, 1, 3, 0, 7, 0.00,60.00,Tuesday
213,194934714.07014197
5925,194934714.07014194
2,3, 1, 3, 0, 8, 0.00,60.00,Tuesday
213,191316360.31672287
5925,191316360.31672284
2,3, 1, 3, 0, 9, 0.00,60.00,Tuesday
213,190135325.45687184
5925,190135325.45687184
2,3, 1, 3, 0,10, 0.00,60.00,Tuesday
213,168549288.74764162
5925,168549288.74764162
2,3, 1, 3, 0,11, 0.00,60.00,Tuesday
213,157779675.59163216
5925,157779675.59163216
2,3, 1, 3, 0,12, 0.00,60.00,Tuesday
213,142922780.48753992
5925,142922780.4875399
2,3, 1, 3, 0,13, 0.00,60.00,Tuesday
213,141334083.71028417
5925,141334083.71028417
2,3, 1, 3, 0,14, 0.00,60.00,Tuesday
213,126387751.08025865
5925,126387751.08025865
2,3, 1, 3, 0,15, 0.00,60.00,Tuesday
213,139037233.54642656
5925,139037233.54642656
2,3, 1, 3, 0,16, 0.00,60.00,Tuesday
213,144115952.34624144
5925,144115952.34624144
2,3, 1, 3, 0,17, 0.00,60.00,Tuesday
213,151257028.0609973
5925,151257028.0609975
2,3, 1, 3, 0,18, 0.00,60.00,Tuesday
213,211908982.89569682
5925,211908982.89569718
2,3, 1, 3, 0,19, 0.00,60.00,Tuesday
213,225581650.5869389
5925,225581650.58693922
2,3, 1, 3, 0,20, 0.00,60.00,Tuesday
213,236399844.26992992
5925,236399844.2699303
2,3, 1, 3, 0,21, 0.00,60.00,Tuesday
213,212121261.56965777
5925,212121261.5696581
2,3, 1, 3, 0,22, 0.00,60.00,Tuesday
213,196154272.18734485
5925,196154272.1873451
2,3, 1, 3, 0,23, 0.00,60.00,Tuesday
213,166958357.56865707
5925,166958357.56865704
2,3, 1, 3, 0,24, 0.00,60.00,Tuesday
213,128410428.39897487
5925,128410428.39897487
2,4, 1, 4, 0, 1, 0.00,60.00,Wednesday
213,102832581.56033148
5925,102832581.56033148
2,4, 1, 4, 0, 2, 0.00,60.00,Wednesday
213,94216444.40020238
5925,94216444.40020238
2,4, 1, 4, 0, 3, 0.00,60.00,Wednesday
213,99635603.57497765
5925,99635603.57497765
2,4, 1, 4, 0, 4, 0.00,60.00,Wednesday
213,92909921.32759154
5925,92909921.32759154
2,4, 1, 4, 0, 5, 0.00,60.00,Wednesday
213,89385427.62343821
5925,89385427.62343822
2,4, 1, 4, 0, 6, 0.00,60.00,Wednesday
213,129444287.34566244
5925,129444287.34566247
2,4, 1, 4, 0, 7, 0.00,60.00,Wednesday
213,194785356.32673037
5925,194785356.32673034
2,4, 1, 4, 0, 8, 0.00,60.00,Wednesday
213,199184564.48247087
5925,199184564.48247087
2,4, 1, 4, 0, 9, 0.00,60.00,Wednesday
213,182891486.07483077
5925,182891486.07483077
2,4, 1, 4, 0,10, 0.00,60.00,Wednesday
213,176369037.29981816
5925,176369037.29981816
2,4, 1, 4, 0,11, 0.00,60.00,Wednesday
213,149649418.3936988
5925,149649418.3936988
2,4, 1, 4, 0,12, 0.00,60.00,Wednesday
213,148272586.1887377
5925,148272586.1887377
2,4, 1, 4, 0,13, 0.00,60.00,Wednesday
213,138616707.77693337
5925,138616707.77693334
2,4, 1, 4, 0,14, 0.00,60.00,Wednesday
213,136917253.92506188
5925,136917253.9250619
2,4, 1, 4, 0,15, 0.00,60.00,Wednesday
213,116587668.41915764
5925,116587668.41915762
2,4, 1, 4, 0,16, 0.00,60.00,Wednesday
213,142209832.5228384
5925,142209832.52283835
2,4, 1, 4, 0,17, 0.00,60.00,Wednesday
213,169538578.39768654
5925,169538578.39768675
2,4, 1, 4, 0,18, 0.00,60.00,Wednesday
213,196706170.15645394
5925,196706170.1564543
2,4, 1, 4, 0,19, 0.00,60.00,Wednesday
213,237572355.23634732
5925,237572355.23634768
2,4, 1, 4, 0,20, 0.00,60.00,Wednesday
213,213120375.92706996
5925,213120375.92707032
2,4, 1, 4, 0,21, 0.00,60.00,Wednesday
213,230177438.84846282
5925,230177438.84846324
2,4, 1, 4, 0,22, 0.00,60.00,Wednesday
213,189275765.59882903
5925,189275765.59882924
2,4, 1, 4, 0,23, 0.00,60.00,Wednesday
213,152119178.11915082
5925,152119178.11915082
2,4, 1, 4, 0,24, 0.00,60.00,Wednesday
213,140765620.83216554
5925,140765620.83216557
2,5, 1, 5, 0, 1, 0.00,60.00,Thursday
213,95908177.37672038
5925,95908177.37672038
2,5, 1, 5, 0, 2, 0.00,60.00,Thursday
213,105938898.48259497
5925,105938898.48259497
2,5, 1, 5, 0, 3, 0.00,60.00,Thursday
213,84830251.5904386
5925,84830251.5904386
2,5, 1, 5, 0, 4, 0.00,60.00,Thursday
213,84098550.70939948
5925,84098550.70939948
2,5, 1, 5, 0, 5, 0.00,60.00,Thursday
213,107624155.44784074
5925,107624155.44784074
2,5, 1, 5, 0, 6, 0.00,60.00,Thursday
213,127996131.90625484
5925,127996131.90625483
2,5, 1, 5, 0, 7, 0.00,60.00,Thursday
213,194075133.04321104
5925,194075133.043211
2,5, 1, 5, 0, 8, 0.00,60.00,Thursday
213,190765574.76239455
5925,190765574.76239455
2,5, 1, 5, 0, 9, 0.00,60.00,Thursday
213,188801020.6869712
5925,188801020.6869712
2,5, 1, 5, 0,10, 0.00,60.00,Thursday
213,152175609.83409983
5925,152175609.83409983
2,5, 1, 5, 0,11, 0.00,60.00,Thursday
213,167084190.53765443
5925,167084190.5376544
2,5, 1, 5, 0,12, 0.00,60.00,Thursday
213,137733480.27194586
5925,137733480.27194586
2,5, 1, 5, 0,13, 0.00,60.00,Thursday
213,129635988.17841594
5925,129635988.17841594
2,5, 1, 5, 0,14, 0.00,60.00,Thursday
213,126131095.88572338
5925,126131095.88572337
2,5, 1, 5, 0,15, 0.00,60.00,Thursday
213,131724967.19286384
5925,131724967.19286379
2,5, 1, 5, 0,16, 0.00,60.00,Thursday
213,123033564.14830881
5925,123033564.1483088
2,5, 1, 5, 0,17, 0.00,60.00,Thursday
213,157479241.84522557
5925,157479241.84522563
2,5, 1, 5, 0,18, 0.00,60.00,Thursday
213,192968791.55427083
5925,192968791.55427122
2,5, 1, 5, 0,19, 0.00,60.00,Thursday
213,234835379.02907324
5925,234835379.02907363
2,5, 1, 5, 0,20, 0.00,60.00,Thursday
213,232326830.46652517
5925,232326830.46652558
2,5, 1, 5, 0,21, 0.00,60.00,Thursday
213,208508118.3154034
5925,208508118.31540373
2,5, 1, 5, 0,22, 0.00,60.00,Thursday
213,192874812.41825587
5925,192874812.418256
2,5, 1, 5, 0,23, 0.00,60.00,Thursday
213,163709687.27273297
5925,163709687.272733
2,5, 1, 5, 0,24, 0.00,60.00,Thursday
213,125028040.12103657
5925,125028040.12103654
2,6, 1, 6, 0, 1, 0.00,60.00,Friday
213,100064704.58658546
5925,100064704.58658545
2,6, 1, 6, 0, 2, 0.00,60.00,Friday
213,90295988.7996114
5925,90295988.79961142
2,6, 1, 6, 0, 3, 0.00,60.00,Friday
213,89841199.50527391
5925,89841199.50527394
2,6, 1, 6, 0, 4, 0.00,60.00,Friday
213,95415992.52146073
5925,95415992.52146074
2,6, 1, 6, 0, 5, 0.00,60.00,Friday
213,92102016.07737134
5925,92102016.07737133
2,6, 1, 6, 0, 6, 0.00,60.00,Friday
213,119931048.83566143
5925,119931048.83566141
2,6, 1, 6, 0, 7, 0.00,60.00,Friday
213,197274522.01536444
5925,197274522.01536447
2,6, 1, 6, 0, 8, 0.00,60.00,Friday
213,190269574.07321513
5925,190269574.07321513
2,6, 1, 6, 0, 9, 0.00,60.00,Friday
213,178373744.6917554
5925,178373744.6917554
2,6, 1, 6, 0,10, 0.00,60.00,Friday
213,169830737.31646633
5925,169830737.3164663
2,6, 1, 6, 0,11, 0.00,60.00,Friday
213,141444204.1403053
5925,141444204.1403053
2,6, 1, 6, 0,12, 0.00,60.00,Friday
213,140232429.459217
5925,140232429.459217
2,6, 1, 6, 0,13, 0.00,60.00,Friday
213,130831014.51120876
5925,130831014.51120877
2,6, 1, 6, 0,14, 0.00,60.00,Friday
213,116381658.15178917
5925,116381658.15178917
2,6, 1, 6, 0,15, 0.00,60.00,Friday
213,129755476.43844648
5925,129755476.43844648
2,6, 1, 6, 0,16, 0.00,60.00,Friday
213,131751079.59033947
5925,131751079.59033945
2,6, 1, 6, 0,17, 0.00,60.00,Friday
213,142285113.89145783
5925,142285113.8914578
2,6, 1, 6, 0,18, 0.00,60.00,Friday
213,201819485.43279046
5925,201819485.43279082
2,6, 1, 6, 0,19, 0.00,60.00,Friday
213,217662769.69231358
5925,217662769.6923139
2,6, 1, 6, 0,20, 0.00,60.00,Friday
213,227289551.51396537
5925,227289551.51396573
2,6, 1, 6, 0,21, 0.00,60.00,Friday
213,207727099.1905116
5925,207727099.1905119
2,6, 1, 6, 0,22, 0.00,60.00,Friday
213,183538570.49699232
5925,183538570.49699253
2,6, 1, 6, 0,23, 0.00,60.00,Friday
213,170032894.8841969
5925,170032894.8841969
2,6, 1, 6, 0,24, 0.00,60.00,Friday
213,124925175.05417962
5925,124925175.05417961
2,7, 1, 7, 0, 1, 0.00,60.00,Saturday
213,100700607.2812517
5925,100700607.28125165
2,7, 1, 7, 0, 2, 0.00,60.00,Saturday
213,92963557.48352054
5925,92963557.48352054
2,7, 1, 7, 0, 3, 0.00,60.00,Saturday
213,98179969.7160778
5925,98179969.7160778
2,7, 1, 7, 0, 4, 0.00,60.00,Saturday
213,91618525.45485188
5925,91618525.45485188
2,7, 1, 7, 0, 5, 0.00,60.00,Saturday
213,88703320.07911591
5925,88703320.07911591
2,7, 1, 7, 0, 6, 0.00,60.00,Saturday
213,138596913.74134278
5925,138596913.74134275
2,7, 1, 7, 0, 7, 0.00,60.00,Saturday
213,184574545.31668702
5925,184574545.31668702
2,7, 1, 7, 0, 8, 0.00,60.00,Saturday
213,203576951.75258192
5925,203576951.75258192
2,7, 1, 7, 0, 9, 0.00,60.00,Saturday
213,171857490.93306312
5925,171857490.93306312
2,7, 1, 7, 0,10, 0.00,60.00,Saturday
213,168749097.234604
5925,168749097.23460397
2,7, 1, 7, 0,11, 0.00,60.00,Saturday
213,142522887.4241787
5925,142522887.42417866
2,7, 1, 7, 0,12, 0.00,60.00,Saturday
213,142042015.92232034
5925,142042015.92232034
2,7, 1, 7, 0,13, 0.00,60.00,Saturday
213,122677972.15613624
5925,122677972.15613621
2,7, 1, 7, 0,14, 0.00,60.00,Saturday
213,126051689.25347221
5925,126051689.25347221
2,7, 1, 7, 0,15, 0.00,60.00,Saturday
213,104157644.4834498
5925,104157644.48344979
2,7, 1, 7, 0,16, 0.00,60.00,Saturday
213,129692647.57162648
5925,129692647.57162648
2,7, 1, 7, 0,17, 0.00,60.00,Saturday
213,157596088.64768055
5925,157596088.64768055
2,7, 1, 7, 0,18, 0.00,60.00,Saturday
213,191224021.22084647
5925,191224021.2208468
2,7, 1, 7, 0,19, 0.00,60.00,Saturday
213,233040465.8368739
5925,233040465.83687425
2,7, 1, 7, 0,20, 0.00,60.00,Saturday
213,210391455.59744614
5925,210391455.5974465
2,7, 1, 7, 0,21, 0.00,60.00,Saturday
213,226659749.4879395
5925,226659749.48793983
2,7, 1, 7, 0,22, 0.00,60.00,Saturday
213,185622355.08762455
5925,185622355.08762473
2,7, 1, 7, 0,23, 0.00,60.00,Saturday
213,163482044.37543997
5925,163482044.37543997
2,7, 1, 7, 0,24, 0.00,60.00,Saturday
213,125412802.08143876
5925,125412802.08143878
2,8, 1, 8, 0, 1, 0.00,60.00,Sunday
213,94172909.08736387
5925,94172909.08736387
2,8, 1, 8, 0, 2, 0.00,60.00,Sunday
213,105280732.92529362
5925,105280732.92529362
2,8, 1, 8, 0, 3, 0.00,60.00,Sunday
213,84559652.00994635
5925,84559652.00994635
2,8, 1, 8, 0, 4, 0.00,60.00,Sunday
213,84286222.64711607
5925,84286222.64711608
2,8, 1, 8, 0, 5, 0.00,60.00,Sunday
213,108406790.7172714
5925,108406790.7172714
2,8, 1, 8, 0, 6, 0.00,60.00,Sunday
213,128262165.31110838
5925,128262165.31110838
2,8, 1, 8, 0, 7, 0.00,60.00,Sunday
213,194125519.4771749
5925,194125519.4771749
2,8, 1, 8, 0, 8, 0.00,60.00,Sunday
213,193679821.90862286
5925,193679821.90862286
2,8, 1, 8, 0, 9, 0.00,60.00,Sunday
213,181385941.01386344
5925,181385941.01386344
2,8, 1, 8, 0,10, 0.00,60.00,Sunday
213,162077383.8415754
5925,162077383.8415754
2,8, 1, 8, 0,11, 0.00,60.00,Sunday
213,144002720.0498903
5925,144002720.04989034
2,8, 1, 8, 0,12, 0.00,60.00,Sunday
213,133237941.83218697
5925,133237941.83218697
2,8, 1, 8, 0,13, 0.00,60.00,Sunday
213,130351689.68489799
5925,130351689.68489796
2,8, 1, 8, 0,14, 0.00,60.00,Sunday
213,111519006.41686673
5925,111519006.41686673
2,8, 1, 8, 0,15, 0.00,60.00,Sunday
213,117385025.86463335
5925,117385025.86463332
2,8, 1, 8, 0,16, 0.00,60.00,Sunday
213,118006938.87401639
5925,118006938.87401636
2,8, 1, 8, 0,17, 0.00,60.00,Sunday
213,147238713.57575545
5925,147238713.57575542
2,8, 1, 8, 0,18, 0.00,60.00,Sunday
213,203194363.57423058
5925,203194363.5742309
2,8, 1, 8, 0,19, 0.00,60.00,Sunday
213,215107808.49186304
5925,215107808.49186337
2,8, 1, 8, 0,20, 0.00,60.00,Sunday
213,228464209.43000045
5925,228464209.4300008
2,8, 1, 8, 0,21, 0.00,60.00,Sunday
213,205351262.8898317
5925,205351262.88983208
2,8, 1, 8, 0,22, 0.00,60.00,Sunday
213,190475111.59078255
5925,190475111.59078273
2,8, 1, 8, 0,23, 0.00,60.00,Sunday
213,162013717.6497329
5925,162013717.6497329
2,8, 1, 8, 0,24, 0.00,60.00,Sunday
213,124101071.88081086
5925,124101071.88081086
2,9, 1, 9, 0, 1, 0.00,60.00,Monday
213,106211350.24952921
5925,106211350.24952918
2,9, 1, 9, 0, 2, 0.00,60.00,Monday
213,84816680.14282084
5925,84816680.14282084
2,9, 1, 9, 0, 3, 0.00,60.00,Monday
213,100644815.2271904
5925,100644815.22719042
2,9, 1, 9, 0, 4, 0.00,60.00,Monday
213,86949865.74748641
5925,86949865.74748641
2,9, 1, 9, 0, 5, 0.00,60.00,Monday
213,95155375.52278058
5925,95155375.52278057
2,9, 1, 9, 0, 6, 0.00,60.00,Monday
213,127192446.64357427
5925,127192446.64357424
2,9, 1, 9, 0, 7, 0.00,60.00,Monday
213,196243312.32337782
5925,196243312.3233778
2,9, 1, 9, 0, 8, 0.00,60.00,Monday
213,191947213.20467085
5925,191947213.20467082
2,9, 1, 9, 0, 9, 0.00,60.00,Monday
213,188446329.12420583
5925,188446329.12420583
2,9, 1, 9, 0,10, 0.00,60.00,Monday
213,164978799.22199923
5925,164978799.22199923
2,9, 1, 9, 0,11, 0.00,60.00,Monday
213,150088677.65844586
5925,150088677.65844586
2,9, 1, 9, 0,12, 0.00,60.00,Monday
213,132314928.85101981
5925,132314928.8510198
2,9, 1, 9, 0,13, 0.00,60.00,Monday
213,135811565.06855112
5925,135811565.0685511
2,9, 1, 9, 0,14, 0.00,60.00,Monday
213,131040945.04112402
5925,131040945.041124
2,9, 1, 9, 0,15, 0.00,60.00,Monday
213,117230209.69336791
5925,117230209.69336791
2,9, 1, 9, 0,16, 0.00,60.00,Monday
213,138070216.82342565
5925,138070216.82342565
2,9, 1, 9, 0,17, 0.00,60.00,Monday
213,150924317.57457605
5925,150924317.57457602
2,9, 1, 9, 0,18, 0.00,60.00,Monday
213,192192056.149881
5925,192192056.1498813
2,9, 1, 9, 0,19, 0.00,60.00,Monday
213,223928505.70358634
5925,223928505.70358673
2,9, 1, 9, 0,20, 0.00,60.00,Monday
213,217789882.1632736
5925,217789882.16327396
2,9, 1, 9, 0,21, 0.00,60.00,Monday
213,214475530.54240972
5925,214475530.54241002
2,9, 1, 9, 0,22, 0.00,60.00,Monday
213,189546244.5997132
5925,189546244.59971339
2,9, 1, 9, 0,23, 0.00,60.00,Monday
213,160852569.79156926
5925,160852569.79156923
2,9, 1, 9, 0,24, 0.00,60.00,Monday
213,124368947.01979947
5925,124368947.01979947
2,10, 1,10, 0, 1, 0.00,60.00,Tuesday
213,97551921.85079882
5925,97551921.85079879
2,10, 1,10, 0, 2, 0.00,60.00,Tuesday
213,94411682.21518703
5925,94411682.21518703
2,10, 1,10, 0, 3, 0.00,60.00,Tuesday
213,93409946.49797261
5925,93409946.49797261
2,10, 1,10, 0, 4, 0.00,60.00,Tuesday
213,84388646.43479297
5925,84388646.43479295
2,10, 1,10, 0, 5, 0.00,60.00,Tuesday
213,104284919.67271572
5925,104284919.67271572
2,10, 1,10, 0, 6, 0.00,60.00,Tuesday
213,128041507.05356157
5925,128041507.05356155
2,10, 1,10, 0, 7, 0.00,60.00,Tuesday
213,195181661.10314122
5925,195181661.10314125
2,10, 1,10, 0, 8, 0.00,60.00,Tuesday
213,194372186.45224822
5925,194372186.45224828
2,10, 1,10, 0, 9, 0.00,60.00,Tuesday
213,184690930.71227258
5925,184690930.7122726
2,10, 1,10, 0,10, 0.00,60.00,Tuesday
213,160630603.0763648
5925,160630603.0763648
2,10, 1,10, 0,11, 0.00,60.00,Tuesday
213,154146162.54528663
5925,154146162.54528663
2,10, 1,10, 0,12, 0.00,60.00,Tuesday
213,135415232.35448483
5925,135415232.35448483
2,10, 1,10, 0,13, 0.00,60.00,Tuesday
213,131502032.8206255
5925,131502032.8206255
2,10, 1,10, 0,14, 0.00,60.00,Tuesday
213,119242816.92315364
5925,119242816.92315362
2,10, 1,10, 0,15, 0.00,60.00,Tuesday
213,128353300.49576405
5925,128353300.49576403
2,10, 1,10, 0,16, 0.00,60.00,Tuesday
213,128157753.50793216
5925,128157753.50793214
2,10, 1,10, 0,17, 0.00,60.00,Tuesday
213,149322782.79145387
5925,149322782.79145384
2,10, 1,10, 0,18, 0.00,60.00,Tuesday
213,195936988.1396252
5925,195936988.13962555
2,10, 1,10, 0,19, 0.00,60.00,Tuesday
213,217296661.09438235
5925,217296661.09438267
2,10, 1,10, 0,20, 0.00,60.00,Tuesday
213,220834092.1979243
5925,220834092.1979246
2,10, 1,10, 0,21, 0.00,60.00,Tuesday
213,206822392.7888185
5925,206822392.7888188
2,10, 1,10, 0,22, 0.00,60.00,Tuesday
213,184621188.45547307
5925,184621188.4554732
2,10, 1,10, 0,23, 0.00,60.00,Tuesday
213,160983831.68011758
5925,160983831.68011758
2,10, 1,10, 0,24, 0.00,60.00,Tuesday
213,119763554.66954236
5925,119763554.66954237
2,11, 1,11, 0, 1, 0.00,60.00,Wednesday
213,94449985.56716082
5925,94449985.56716082
2,11, 1,11, 0, 2, 0.00,60.00,Wednesday
213,86148408.56587933
5925,86148408.56587933
2,11, 1,11, 0, 3, 0.00,60.00,Wednesday
213,90003302.18125157
5925,90003302.18125157
2,11, 1,11, 0, 4, 0.00,60.00,Wednesday
213,84927688.18713531
5925,84927688.18713531
2,11, 1,11, 0, 5, 0.00,60.00,Wednesday
213,87588444.3106526
5925,87588444.3106526
2,11, 1,11, 0, 6, 0.00,60.00,Wednesday
213,128069250.39807346
5925,128069250.39807345
2,11, 1,11, 0, 7, 0.00,60.00,Wednesday
213,182207525.11580676
5925,182207525.11580676
2,11, 1,11, 0, 8, 0.00,60.00,Wednesday
213,190920969.96871462
5925,190920969.96871462
2,11, 1,11, 0, 9, 0.00,60.00,Wednesday
213,177440763.26383683
5925,177440763.2638368
2,11, 1,11, 0,10, 0.00,60.00,Wednesday
213,165944299.8029033
5925,165944299.80290326
2,11, 1,11, 0,11, 0.00,60.00,Wednesday
213,150903380.11363477
5925,150903380.11363477
2,11, 1,11, 0,12, 0.00,60.00,Wednesday
213,142114021.60632443
5925,142114021.60632443
2,11, 1,11, 0,13, 0.00,60.00,Wednesday
213,132336084.14539596
5925,132336084.14539601
2,11, 1,11, 0,14, 0.00,60.00,Wednesday
213,125277001.53643352
5925,125277001.5364335
2,11, 1,11, 0,15, 0.00,60.00,Wednesday
213,122681320.44270429
5925,122681320.44270428
2,11, 1,11, 0,16, 0.00,60.00,Wednesday
213,136858007.6204558
5925,136858007.62045574
2,11, 1,11, 0,17, 0.00,60.00,Wednesday
213,159007917.79448453
5925,159007917.79448467
2,11, 1,11, 0,18, 0.00,60.00,Wednesday
213,197932812.75374064
5925,197932812.75374103
2,11, 1,11, 0,19, 0.00,60.00,Wednesday
213,231046761.95708036
5925,231046761.95708066
2,11, 1,11, 0,20, 0.00,60.00,Wednesday
213,227045313.62027276
5925,227045313.6202731
2,11, 1,11, 0,21, 0.00,60.00,Wednesday
213,213410802.25285813
5925,213410802.25285846
2,11, 1,11, 0,22, 0.00,60.00,Wednesday
213,189174504.62069282
5925,189174504.62069303
2,11, 1,11, 0,23, 0.00,60.00,Wednesday
213,167117205.67968088
5925,167117205.67968085
2,11, 1,11, 0,24, 0.00,60.00,Wednesday
213,125482595.3623146
5925,125482595.36231457
2,12, 1,12, 0, 1, 0.00,60.00,Thursday
213,94784265.1243322
5925,94784265.12433219
2,12, 1,12, 0, 2, 0.00,60.00,Thursday
213,98227582.47848496
5925,98227582.47848496
2,12, 1,12, 0, 3, 0.00,60.00,Thursday
213,90973760.61252013
5925,90973760.61252013
2,12, 1,12, 0, 4, 0.00,60.00,Thursday
213,93814008.94431666
5925,93814008.94431667
2,12, 1,12, 0, 5, 0.00,60.00,Thursday
213,95916261.45646293
5925,95916261.45646292
2,12, 1,12, 0, 6, 0.00,60.00,Thursday
213,128213786.87636669
5925,128213786.87636669
2,12, 1,12, 0, 7, 0.00,60.00,Thursday
213,192781258.3865246
5925,192781258.3865246
2,12, 1,12, 0, 8, 0.00,60.00,Thursday
213,194767599.97809023
5925,194767599.97809023
2,12, 1,12, 0, 9, 0.00,60.00,Thursday
213,184806433.83297366
5925,184806433.8329737
2,12, 1,12, 0,10, 0.00,60.00,Thursday
213,165348345.5040851
5925,165348345.50408512
2,12, 1,12, 0,11, 0.00,60.00,Thursday
213,156760301.16723427
5925,156760301.16723427
2,12, 1,12, 0,12, 0.00,60.00,Thursday
213,143640239.44536507
5925,143640239.4453651
2,12, 1,12, 0,13, 0.00,60.00,Thursday
213,138176369.22509286
5925,138176369.2250929
2,12, 1,12, 0,14, 0.00,60.00,Thursday
213,130798093.85260063
5925,130798093.85260063
2,12, 1,12, 0,15, 0.00,60.00,Thursday
213,125870812.89878675
5925,125870812.89878672
2,12, 1,12, 0,16, 0.00,60.00,Thursday
213,133646747.56247848
5925,133646747.56247848
2,12, 1,12, 0,17, 0.00,60.00,Thursday
213,163400297.17497167
5925,163400297.17497182
2,12, 1,12, 0,18, 0.00,60.00,Thursday
213,202955132.35818565
5925,202955132.358186
2,12, 1,12, 0,19, 0.00,60.00,Thursday
213,230167627.93307558
5925,230167627.9330759
2,12, 1,12, 0,20, 0.00,60.00,Thursday
213,226001452.17582393
5925,226001452.17582428
2,12, 1,12, 0,21, 0.00,60.00,Thursday
213,217380245.82337284
5925,217380245.8233732
2,12, 1,12, 0,22, 0.00,60.00,Thursday
213,191315318.37540233
5925,191315318.3754025
2,12, 1,12, 0,23, 0.00,60.00,Thursday
213,161260429.68608502
5925,161260429.68608502
2,12, 1,12, 0,24, 0.00,60.00,Thursday
213,132685644.44537139
5925,132685644.44537139
2,13, 1,13, 0, 1, 0.00,60.00,Friday
213,99186689.84308214
5925,99186689.84308213
2,13, 1,13, 0, 2, 0.00,60.00,Friday
213,92096951.21550244
5925,92096951.21550246
2,13, 1,13, 0, 3, 0.00,60.00,Friday
213,95811275.5713314
5925,95811275.5713314
2,13, 1,13, 0, 4, 0.00,60.00,Friday
213,91689921.53084336
5925,91689921.53084335
2,13, 1,13, 0, 5, 0.00,60.00,Friday
213,98489347.62153572
5925,98489347.62153572
2,13, 1,13, 0, 6, 0.00,60.00,Friday
213,130980769.46364385
5925,130980769.46364386
2,13, 1,13, 0, 7, 0.00,60.00,Friday
213,191123505.6195735
5925,191123505.61957353
2,13, 1,13, 0, 8, 0.00,60.00,Friday
213,195777917.20639747
5925,195777917.20639747
2,13, 1,13, 0, 9, 0.00,60.00,Friday
213,183924977.95321798
5925,183924977.95321798
2,13, 1,13, 0,10, 0.00,60.00,Friday
213,165921191.13407958
5925,165921191.1340796
2,13, 1,13, 0,11, 0.00,60.00,Friday
213,159001998.9263841
5925,159001998.92638406
2,13, 1,13, 0,12, 0.00,60.00,Friday
213,146102701.139391
5925,146102701.139391
2,13, 1,13, 0,13, 0.00,60.00,Friday
213,135979085.98251727
5925,135979085.98251727
2,13, 1,13, 0,14, 0.00,60.00,Friday
213,130411486.27284358
5925,130411486.27284357
2,13, 1,13, 0,15, 0.00,60.00,Friday
213,126279171.15004903
5925,126279171.15004902
2,13, 1,13, 0,16, 0.00,60.00,Friday
213,133265293.15064813
5925,133265293.15064812
2,13, 1,13, 0,17, 0.00,60.00,Friday
213,162788312.23335156
5925,162788312.2333517
2,13, 1,13, 0,18, 0.00,60.00,Friday
213,201590298.81836715
5925,201590298.81836754
2,13, 1,13, 0,19, 0.00,60.00,Friday
213,233294451.54777846
5925,233294451.54777882
2,13, 1,13, 0,20, 0.00,60.00,Friday
213,228170910.94785225
5925,228170910.94785258
2,13, 1,13, 0,21, 0.00,60.00,Friday
213,216102979.11625296
5925,216102979.11625332
2,13, 1,13, 0,22, 0.00,60.00,Friday
213,192280361.43353426
5925,192280361.43353447
2,13, 1,13, 0,23, 0.00,60.00,Friday
213,163311549.75814602
5925,163311549.758146
2,13, 1,13, 0,24, 0.00,60.00,Friday
213,129804859.48099652
5925,129804859.48099653
2,14, 1,14, 0, 1, 0.00,60.00,Saturday
213,101822537.41555318
5925,101822537.41555318
2,14, 1,14, 0, 2, 0.00,60.00,Saturday
213,96958205.81815775
5925,96958205.81815776
2,14, 1,14, 0, 3, 0.00,60.00,Saturday
213,85698332.01075496
5925,85698332.01075497
2,14, 1,14, 0, 4, 0.00,60.00,Saturday
213,98130624.84819528
5925,98130624.84819528
2,14, 1,14, 0, 5, 0.00,60.00,Saturday
213,95516650.41034684
5925,95516650.41034682
2,14, 1,14, 0, 6, 0.00,60.00,Saturday
213,128716796.59658973
5925,128716796.5965897
2,14, 1,14, 0, 7, 0.00,60.00,Saturday
213,194146843.078664
5925,194146843.078664
2,14, 1,14, 0, 8, 0.00,60.00,Saturday
213,197422301.89014772
5925,197422301.89014772
2,14, 1,14, 0, 9, 0.00,60.00,Saturday
213,178160141.8260889
5925,178160141.82608888
2,14, 1,14, 0,10, 0.00,60.00,Saturday
213,167306614.2458817
5925,167306614.2458817
2,14, 1,14, 0,11, 0.00,60.00,Saturday
213,147294578.82535
5925,147294578.82535
2,14, 1,14, 0,12, 0.00,60.00,Saturday
213,144353930.58780983
5925,144353930.58780983
2,14, 1,14, 0,13, 0.00,60.00,Saturday
213,135732691.55577135
5925,135732691.55577135
2,14, 1,14, 0,14, 0.00,60.00,Saturday
213,129087024.1933338
5925,129087024.1933338
2,14, 1,14, 0,15, 0.00,60.00,Saturday
213,119634119.15297954
5925,119634119.15297952
2,14, 1,14, 0,16, 0.00,60.00,Saturday
213,134822197.18131396
5925,134822197.18131396
2,14, 1,14, 0,17, 0.00,60.00,Saturday
213,162084077.17595312
5925,162084077.1759532
2,14, 1,14, 0,18, 0.00,60.00,Saturday
213,200329771.96300858
5925,200329771.96300894
2,14, 1,14, 0,19, 0.00,60.00,Saturday
213,234469827.5690216
5925,234469827.56902194
2,14, 1,14, 0,20, 0.00,60.00,Saturday
213,221136310.79171932
5925,221136310.79171968
2,14, 1,14, 0,21, 0.00,60.00,Saturday
213,224732002.26245207
5925,224732002.26245236
2,14, 1,14, 0,22, 0.00,60.00,Saturday
213,191321764.739959
5925,191321764.73995927
2,14, 1,14, 0,23, 0.00,60.00,Saturday
213,165048113.6842276
5925,165048113.68422756
2,14, 1,14, 0,24, 0.00,60.00,Saturday
213,127505931.88827495
5925,127505931.88827494
2,15, 1,15, 0, 1, 0.00,60.00,Sunday
213,98917734.68524732
5925,98917734.6852473
2,15, 1,15, 0, 2, 0.00,60.00,Sunday
213,98942326.17885631
5925,98942326.17885633
2,15, 1,15, 0, 3, 0.00,60.00,Sunday
213,91265036.20923336
5925,91265036.20923337
2,15, 1,15, 0, 4, 0.00,60.00,Sunday
213,88892796.96119359
5925,88892796.96119356
2,15, 1,15, 0, 5, 0.00,60.00,Sunday
213,97547013.03975075
5925,97547013.03975074
2,15, 1,15, 0, 6, 0.00,60.00,Sunday
213,128524258.07290873
5925,128524258.07290873
2,15, 1,15, 0, 7, 0.00,60.00,Sunday
213,194334039.50413176
5925,194334039.50413173
2,15, 1,15, 0, 8, 0.00,60.00,Sunday
213,195629279.10251212
5925,195629279.10251212
2,15, 1,15, 0, 9, 0.00,60.00,Sunday
213,178426955.20109275
5925,178426955.20109275
2,15, 1,15, 0,10, 0.00,60.00,Sunday
213,168877683.8173788
5925,168877683.8173788
2,15, 1,15, 0,11, 0.00,60.00,Sunday
213,152321710.01787502
5925,152321710.01787502
2,15, 1,15, 0,12, 0.00,60.00,Sunday
213,143653946.85687718
5925,143653946.8568772
2,15, 1,15, 0,13, 0.00,60.00,Sunday
213,133921659.33656907
5925,133921659.33656906
2,15, 1,15, 0,14, 0.00,60.00,Sunday
213,124576304.33600512
5925,124576304.33600512
2,15, 1,15, 0,15, 0.00,60.00,Sunday
213,129844298.5985152
5925,129844298.5985152
2,15, 1,15, 0,16, 0.00,60.00,Sunday
213,133015415.06501998
5925,133015415.06502
2,15, 1,15, 0,17, 0.00,60.00,Sunday
213,156406373.08185035
5925,156406373.0818505
2,15, 1,15, 0,18, 0.00,60.00,Sunday