Program Version,EnergyPlus, Version 26.1.0-6f2e40d102, YMD=2026.04.14 20:38
1,5,Environment Title[],Latitude[deg],Longitude[deg],Time Zone[],Elevation[m]
2,8,Day of Simulation[],Month[],Day of Month[],DST Indicator[1=yes 0=no],Hour[],StartMinute[],EndMinute[],DayType
3,5,Cumulative Day of Simulation[],Month[],Day of Month[],DST Indicator[1=yes 0=no],DayType  ! When Daily Meters Requested
4,2,Cumulative Days of Simulation[],Month[]  ! When Monthly Meters Requested
5,1,Cumulative Days of Simulation[] ! When Run Period Meters Requested
6,1,Calendar Year of Simulation[] ! When Annual Meters Requested
213,1,Electricity:Facility [J] !Hourly
6085,1,ElectricityNet:Facility [J] !Hourly
End of Data Dictionary
1,RUNPERIOD 1,  28.11, 112.79,   8.00, 120.00
2,1, 1, 1, 0, 1, 0.00,60.00,Holiday
213,286771391.21816623
6085,286771391.2181662
2,1, 1, 1, 0, 2, 0.00,60.00,Holiday
213,274777115.8323493
6085,274777115.8323492
2,1, 1, 1, 0, 3, 0.00,60.00,Holiday
213,273597651.0014568
6085,273597651.00145674
2,1, 1, 1, 0, 4, 0.00,60.00,Holiday
213,273117603.18462235
6085,273117603.1846223
2,1, 1, 1, 0, 5, 0.00,60.00,Holiday
213,276147734.79779357
6085,276147734.79779345
2,1, 1, 1, 0, 6, 0.00,60.00,Holiday
213,291492034.5990739
6085,291492034.5990737
2,1, 1, 1, 0, 7, 0.00,60.00,Holiday
213,312263188.6685812
6085,312263188.6685809
2,1, 1, 1, 0, 8, 0.00,60.00,Holiday
213,309073352.56904656
6085,309073352.5690464
2,1, 1, 1, 0, 9, 0.00,60.00,Holiday
213,300734362.6931305
6085,300734362.69313025
2,1, 1, 1, 0,10, 0.00,60.00,Holiday
213,295089381.5881306
6085,295089381.5881304
2,1, 1, 1, 0,11, 0.00,60.00,Holiday
213,283413789.61185235
6085,283413789.6118523
2,1, 1, 1, 0,12, 0.00,60.00,Holiday
213,296038699.5169118
6085,296038699.51691157
2,1, 1, 1, 0,13, 0.00,60.00,Holiday
213,295905410.29361135
6085,295905410.2936112
2,1, 1, 1, 0,14, 0.00,60.00,Holiday
213,285605777.69788337
6085,285605777.69788325
2,1, 1, 1, 0,15, 0.00,60.00,Holiday
213,293864007.8391087
6085,293864007.8391086
2,1, 1, 1, 0,16, 0.00,60.00,Holiday
213,306598476.1402392
6085,306598476.14023906
2,1, 1, 1, 0,17, 0.00,60.00,Holiday
213,327514825.1960477
6085,327514825.19604784
2,1, 1, 1, 0,18, 0.00,60.00,Holiday
213,381805324.79841775
6085,381805324.7984182
2,1, 1, 1, 0,19, 0.00,60.00,Holiday
213,397382069.9418416
6085,397382069.9418422
2,1, 1, 1, 0,20, 0.00,60.00,Holiday
213,384344702.30522156
6085,384344702.3052221
2,1, 1, 1, 0,21, 0.00,60.00,Holiday
213,379089653.9908712
6085,379089653.9908717
2,1, 1, 1, 0,22, 0.00,60.00,Holiday
213,360640585.1045549
6085,360640585.1045551
2,1, 1, 1, 0,23, 0.00,60.00,Holiday
213,328774142.30103856
6085,328774142.30103844
2,1, 1, 1, 0,24, 0.00,60.00,Holiday
213,309475889.40919024
6085,309475889.40918994
2,2, 1, 2, 0, 1, 0.00,60.00,Monday
213,292110577.730419
6085,292110577.73041904
2,2, 1, 2, 0, 2, 0.00,60.00,Monday
213,282550779.0777604
6085,282550779.07776034
2,2, 1, 2, 0, 3, 0.00,60.00,Monday
213,279659223.93594193
6085,279659223.9359419
2,2, 1, 2, 0, 4, 0.00,60.00,Monday
213,279028393.1690906
6085,279028393.1690905
2,2, 1, 2, 0, 5, 0.00,60.00,Monday
213,282538951.00805503
6085,282538951.0080549
2,2, 1, 2, 0, 6, 0.00,60.00,Monday
213,298205924.66845894
6085,298205924.6684587
2,2, 1, 2, 0, 7, 0.00,60.00,Monday
213,323695856.77117264
6085,323695856.77117246
2,2, 1, 2, 0, 8, 0.00,60.00,Monday
213,322570185.67633784
6085,322570185.6763377
2,2, 1, 2, 0, 9, 0.00,60.00,Monday
213,319977520.73504955
6085,319977520.73504937
2,2, 1, 2, 0,10, 0.00,60.00,Monday
213,314312736.779395
6085,314312736.7793948
2,2, 1, 2, 0,11, 0.00,60.00,Monday
213,305255260.3105709
6085,305255260.3105707
2,2, 1, 2, 0,12, 0.00,60.00,Monday
213,307552241.3373056
6085,307552241.33730537
2,2, 1, 2, 0,13, 0.00,60.00,Monday
213,305310810.9147405
6085,305310810.9147403
2,2, 1, 2, 0,14, 0.00,60.00,Monday
213,303824037.89726764
6085,303824037.8972674
2,2, 1, 2, 0,15, 0.00,60.00,Monday
213,298986423.9209659
6085,298986423.9209658
2,2, 1, 2, 0,16, 0.00,60.00,Monday
213,304552025.95990866
6085,304552025.9599085
2,2, 1, 2, 0,17, 0.00,60.00,Monday
213,338752506.5773399
6085,338752506.5773401
2,2, 1, 2, 0,18, 0.00,60.00,Monday
213,386642508.1074256
6085,386642508.10742605
2,2, 1, 2, 0,19, 0.00,60.00,Monday
213,405287703.742553
6085,405287703.7425534
2,2, 1, 2, 0,20, 0.00,60.00,Monday
213,396116862.11869305
6085,396116862.1186936
2,2, 1, 2, 0,21, 0.00,60.00,Monday
213,388789896.4775046
6085,388789896.477505
2,2, 1, 2, 0,22, 0.00,60.00,Monday
213,368289047.65939957
6085,368289047.6593998
2,2, 1, 2, 0,23, 0.00,60.00,Monday
213,336802045.9937019
6085,336802045.99370164
2,2, 1, 2, 0,24, 0.00,60.00,Monday
213,317524117.4196189
6085,317524117.4196186
2,3, 1, 3, 0, 1, 0.00,60.00,Tuesday
213,300341522.09669816
6085,300341522.09669805
2,3, 1, 3, 0, 2, 0.00,60.00,Tuesday
213,291786395.08118945
6085,291786395.0811894
2,3, 1, 3, 0, 3, 0.00,60.00,Tuesday
213,289627381.25812644
6085,289627381.2581263
2,3, 1, 3, 0, 4, 0.00,60.00,Tuesday
213,288872811.29561955
6085,288872811.2956195
2,3, 1, 3, 0, 5, 0.00,60.00,Tuesday
213,292340416.52482283
6085,292340416.5248228
2,3, 1, 3, 0, 6, 0.00,60.00,Tuesday
213,313841575.0055549
6085,313841575.0055548
2,3, 1, 3, 0, 7, 0.00,60.00,Tuesday
213,336485509.05250776
6085,336485509.0525075
2,3, 1, 3, 0, 8, 0.00,60.00,Tuesday
213,331245842.78533244
6085,331245842.7853323
2,3, 1, 3, 0, 9, 0.00,60.00,Tuesday
213,328530245.58702105
6085,328530245.5870209
2,3, 1, 3, 0,10, 0.00,60.00,Tuesday
213,320361188.17271596
6085,320361188.1727158
2,3, 1, 3, 0,11, 0.00,60.00,Tuesday
213,312417359.4033531
6085,312417359.4033529
2,3, 1, 3, 0,12, 0.00,60.00,Tuesday
213,314868965.7998354
6085,314868965.7998352
2,3, 1, 3, 0,13, 0.00,60.00,Tuesday
213,310713852.13004655
6085,310713852.13004637
2,3, 1, 3, 0,14, 0.00,60.00,Tuesday
213,309021884.3404832
6085,309021884.340483
2,3, 1, 3, 0,15, 0.00,60.00,Tuesday
213,308184804.23384184
6085,308184804.2338416
2,3, 1, 3, 0,16, 0.00,60.00,Tuesday
213,316488310.8210458
6085,316488310.8210456
2,3, 1, 3, 0,17, 0.00,60.00,Tuesday
213,350938199.4931727
6085,350938199.4931729
2,3, 1, 3, 0,18, 0.00,60.00,Tuesday
213,398834456.5479566
6085,398834456.5479572
2,3, 1, 3, 0,19, 0.00,60.00,Tuesday
213,413799137.2646704
6085,413799137.2646708
2,3, 1, 3, 0,20, 0.00,60.00,Tuesday
213,401599902.95329183
6085,401599902.95329237
2,3, 1, 3, 0,21, 0.00,60.00,Tuesday
213,394231683.7222888
6085,394231683.7222892
2,3, 1, 3, 0,22, 0.00,60.00,Tuesday
213,372631701.4513035
6085,372631701.45130366
2,3, 1, 3, 0,23, 0.00,60.00,Tuesday
213,339281863.2657096
6085,339281863.2657094
2,3, 1, 3, 0,24, 0.00,60.00,Tuesday
213,313114109.6654609
6085,313114109.66546065
2,4, 1, 4, 0, 1, 0.00,60.00,Wednesday
213,295917096.02419007
6085,295917096.02419
2,4, 1, 4, 0, 2, 0.00,60.00,Wednesday
213,292290375.9922021
6085,292290375.99220204
2,4, 1, 4, 0, 3, 0.00,60.00,Wednesday
213,296748398.29263514
6085,296748398.2926351
2,4, 1, 4, 0, 4, 0.00,60.00,Wednesday
213,295991073.639778
6085,295991073.63977796
2,4, 1, 4, 0, 5, 0.00,60.00,Wednesday
213,294967694.08544725
6085,294967694.08544725
2,4, 1, 4, 0, 6, 0.00,60.00,Wednesday
213,313115853.98419756
6085,313115853.9841974
2,4, 1, 4, 0, 7, 0.00,60.00,Wednesday
213,334226123.9985819
6085,334226123.99858177
2,4, 1, 4, 0, 8, 0.00,60.00,Wednesday
213,332092054.3026318
6085,332092054.3026316
2,4, 1, 4, 0, 9, 0.00,60.00,Wednesday
213,331621833.5120621
6085,331621833.51206183
2,4, 1, 4, 0,10, 0.00,60.00,Wednesday
213,322115543.3205338
6085,322115543.3205336
2,4, 1, 4, 0,11, 0.00,60.00,Wednesday
213,305687510.8914096
6085,305687510.89140934
2,4, 1, 4, 0,12, 0.00,60.00,Wednesday
213,294473335.2540378
6085,294473335.2540376
2,4, 1, 4, 0,13, 0.00,60.00,Wednesday
213,283226473.1307136
6085,283226473.13071346
2,4, 1, 4, 0,14, 0.00,60.00,Wednesday
213,279891449.71593577
6085,279891449.7159356
2,4, 1, 4, 0,15, 0.00,60.00,Wednesday
213,285192069.49723756
6085,285192069.4972374
2,4, 1, 4, 0,16, 0.00,60.00,Wednesday
213,293516280.25720906
6085,293516280.2572089
2,4, 1, 4, 0,17, 0.00,60.00,Wednesday
213,323719821.29320073
6085,323719821.2932009
2,4, 1, 4, 0,18, 0.00,60.00,Wednesday
213,378970298.59361565
6085,378970298.5936161
2,4, 1, 4, 0,19, 0.00,60.00,Wednesday
213,395028553.17345
6085,395028553.1734504
2,4, 1, 4, 0,20, 0.00,60.00,Wednesday
213,378020100.4995141
6085,378020100.4995145
2,4, 1, 4, 0,21, 0.00,60.00,Wednesday
213,379009379.0839206
6085,379009379.0839211
2,4, 1, 4, 0,22, 0.00,60.00,Wednesday
213,360462242.0510803
6085,360462242.0510804
2,4, 1, 4, 0,23, 0.00,60.00,Wednesday
213,323288060.7524833
6085,323288060.752483
2,4, 1, 4, 0,24, 0.00,60.00,Wednesday
213,303836271.5921676
6085,303836271.5921674
2,5, 1, 5, 0, 1, 0.00,60.00,Thursday
213,287114425.64247024
6085,287114425.64247024
2,5, 1, 5, 0, 2, 0.00,60.00,Thursday
213,277665163.88460994
6085,277665163.8846098
2,5, 1, 5, 0, 3, 0.00,60.00,Thursday
213,279056345.2157036
6085,279056345.2157036
2,5, 1, 5, 0, 4, 0.00,60.00,Thursday
213,277142351.3980902
6085,277142351.3980901
2,5, 1, 5, 0, 5, 0.00,60.00,Thursday
213,275506226.62010795
6085,275506226.6201079
2,5, 1, 5, 0, 6, 0.00,60.00,Thursday
213,298204099.18067545
6085,298204099.18067515
2,5, 1, 5, 0, 7, 0.00,60.00,Thursday
213,326069290.3807254
6085,326069290.3807251
2,5, 1, 5, 0, 8, 0.00,60.00,Thursday
213,323112749.4599412
6085,323112749.45994097
2,5, 1, 5, 0, 9, 0.00,60.00,Thursday
213,310812249.2541438
6085,310812249.2541436
2,5, 1, 5, 0,10, 0.00,60.00,Thursday
213,285024112.2758753
6085,285024112.2758751
2,5, 1, 5, 0,11, 0.00,60.00,Thursday
213,260430962.39464128
6085,260430962.39464116
2,5, 1, 5, 0,12, 0.00,60.00,Thursday
213,251968385.4179375
6085,251968385.41793728
2,5, 1, 5, 0,13, 0.00,60.00,Thursday
213,242090378.52346948
6085,242090378.5234693
2,5, 1, 5, 0,14, 0.00,60.00,Thursday
213,232229577.49795225
6085,232229577.49795207
2,5, 1, 5, 0,15, 0.00,60.00,Thursday
213,218374091.06446242
6085,218374091.06446233
2,5, 1, 5, 0,16, 0.00,60.00,Thursday
213,219794759.63077772
6085,219794759.6307775
2,5, 1, 5, 0,17, 0.00,60.00,Thursday
213,258064037.57369173
6085,258064037.5736919
2,5, 1, 5, 0,18, 0.00,60.00,Thursday
213,326524223.546511
6085,326524223.54651153
2,5, 1, 5, 0,19, 0.00,60.00,Thursday
213,355752724.5394687
6085,355752724.5394692
2,5, 1, 5, 0,20, 0.00,60.00,Thursday
213,348138905.2975054
6085,348138905.29750586
2,5, 1, 5, 0,21, 0.00,60.00,Thursday
213,346303184.5242023
6085,346303184.52420276
2,5, 1, 5, 0,22, 0.00,60.00,Thursday
213,329009669.46249616
6085,329009669.4624963
2,5, 1, 5, 0,23, 0.00,60.00,Thursday
213,297124013.4895418
6085,297124013.48954165
2,5, 1, 5, 0,24, 0.00,60.00,Thursday
213,270964828.5797404
6085,270964828.57974017
2,6, 1, 6, 0, 1, 0.00,60.00,Friday
213,253922211.49771032
6085,253922211.49771035
2,6, 1, 6, 0, 2, 0.00,60.00,Friday
213,252012685.94881123
6085,252012685.9488112
2,6, 1, 6, 0, 3, 0.00,60.00,Friday
213,251956129.42976943
6085,251956129.42976934
2,6, 1, 6, 0, 4, 0.00,60.00,Friday
213,252402729.8655623
6085,252402729.86556217
2,6, 1, 6, 0, 5, 0.00,60.00,Friday
213,255770185.3799137
6085,255770185.3799136
2,6, 1, 6, 0, 6, 0.00,60.00,Friday
213,271376559.15850675
6085,271376559.1585066
2,6, 1, 6, 0, 7, 0.00,60.00,Friday
213,294802240.409031
6085,294802240.4090308
2,6, 1, 6, 0, 8, 0.00,60.00,Friday
213,293985925.7939096
6085,293985925.79390943
2,6, 1, 6, 0, 9, 0.00,60.00,Friday
213,278430371.5150686
6085,278430371.5150683
2,6, 1, 6, 0,10, 0.00,60.00,Friday
213,244324187.90704456
6085,244324187.9070443
2,6, 1, 6, 0,11, 0.00,60.00,Friday
213,210642864.98622334
6085,210642864.98622316
2,6, 1, 6, 0,12, 0.00,60.00,Friday
213,206171969.81796297
6085,206171969.81796274
2,6, 1, 6, 0,13, 0.00,60.00,Friday
213,201353544.58869705
6085,201353544.5886969
2,6, 1, 6, 0,14, 0.00,60.00,Friday
213,196479531.25169572
6085,196479531.2516955
2,6, 1, 6, 0,15, 0.00,60.00,Friday
213,189547313.73322278
6085,189547313.73322263
2,6, 1, 6, 0,16, 0.00,60.00,Friday
213,194609747.04432258
6085,194609747.04432243
2,6, 1, 6, 0,17, 0.00,60.00,Friday
213,229994889.96580473
6085,229994889.96580458
2,6, 1, 6, 0,18, 0.00,60.00,Friday
213,285009388.1712408
6085,285009388.17124134
2,6, 1, 6, 0,19, 0.00,60.00,Friday
213,317427550.8299242
6085,317427550.82992464
2,6, 1, 6, 0,20, 0.00,60.00,Friday
213,308275130.8428394
6085,308275130.84283996
2,6, 1, 6, 0,21, 0.00,60.00,Friday
213,306131418.0652909
6085,306131418.0652914
2,6, 1, 6, 0,22, 0.00,60.00,Friday
213,295173575.88669866
6085,295173575.8866989
2,6, 1, 6, 0,23, 0.00,60.00,Friday
213,272835855.5637101
6085,272835855.56371
2,6, 1, 6, 0,24, 0.00,60.00,Friday
213,257619695.55312368
6085,257619695.55312353
2,7, 1, 7, 0, 1, 0.00,60.00,Saturday
213,252751362.08783945
6085,252751362.08783942
2,7, 1, 7, 0, 2, 0.00,60.00,Saturday
213,258826115.85867724
6085,258826115.85867715
2,7, 1, 7, 0, 3, 0.00,60.00,Saturday
213,261608445.50196338
6085,261608445.50196332
2,7, 1, 7, 0, 4, 0.00,60.00,Saturday
213,262951479.6731497
6085,262951479.6731496
2,7, 1, 7, 0, 5, 0.00,60.00,Saturday
213,268484671.13931406
6085,268484671.13931394
2,7, 1, 7, 0, 6, 0.00,60.00,Saturday
213,288418244.60763055
6085,288418244.6076304
2,7, 1, 7, 0, 7, 0.00,60.00,Saturday
213,313533966.55439913
6085,313533966.5543989
2,7, 1, 7, 0, 8, 0.00,60.00,Saturday
213,311299163.94737345
6085,311299163.9473733
2,7, 1, 7, 0, 9, 0.00,60.00,Saturday
213,285225921.8156414
6085,285225921.8156413
2,7, 1, 7, 0,10, 0.00,60.00,Saturday
213,256341345.18283963
6085,256341345.18283942
2,7, 1, 7, 0,11, 0.00,60.00,Saturday
213,224729741.51655018
6085,224729741.51655003
2,7, 1, 7, 0,12, 0.00,60.00,Saturday
213,210725281.52892432
6085,210725281.5289241
2,7, 1, 7, 0,13, 0.00,60.00,Saturday
213,205196970.88963777
6085,205196970.8896376
2,7, 1, 7, 0,14, 0.00,60.00,Saturday
213,198621044.40810826
6085,198621044.40810806
2,7, 1, 7, 0,15, 0.00,60.00,Saturday
213,193116392.17026943
6085,193116392.17026925
2,7, 1, 7, 0,16, 0.00,60.00,Saturday
213,198496420.50591683
6085,198496420.50591663
2,7, 1, 7, 0,17, 0.00,60.00,Saturday
213,236713414.71525362
6085,236713414.71525338
2,7, 1, 7, 0,18, 0.00,60.00,Saturday
213,296352792.37283003
6085,296352792.37283057
2,7, 1, 7, 0,19, 0.00,60.00,Saturday
213,324878099.1486864
6085,324878099.14868695
2,7, 1, 7, 0,20, 0.00,60.00,Saturday
213,318981106.20777214
6085,318981106.2077726
2,7, 1, 7, 0,21, 0.00,60.00,Saturday
213,320452354.1501675
6085,320452354.15016794
2,7, 1, 7, 0,22, 0.00,60.00,Saturday
213,309259108.0296588
6085,309259108.0296589
2,7, 1, 7, 0,23, 0.00,60.00,Saturday
213,283854312.0365728
6085,283854312.03657264
2,7, 1, 7, 0,24, 0.00,60.00,Saturday
213,263986655.3735981
6085,263986655.37359795
2,8, 1, 8, 0, 1, 0.00,60.00,Sunday
213,251979702.92960006
6085,251979702.92960012
2,8, 1, 8, 0, 2, 0.00,60.00,Sunday
213,253966871.56982535
6085,253966871.56982523
2,8, 1, 8, 0, 3, 0.00,60.00,Sunday
213,258096393.93787998
6085,258096393.9378799
2,8, 1, 8, 0, 4, 0.00,60.00,Sunday
213,260997710.08588737
6085,260997710.0858873
2,8, 1, 8, 0, 5, 0.00,60.00,Sunday
213,266592199.71153563
6085,266592199.71153557
2,8, 1, 8, 0, 6, 0.00,60.00,Sunday
213,284141048.5845733
6085,284141048.58457315
2,8, 1, 8, 0, 7, 0.00,60.00,Sunday
213,310483464.39539117
6085,310483464.3953909
2,8, 1, 8, 0, 8, 0.00,60.00,Sunday
213,312372751.3185148
6085,312372751.31851465
2,8, 1, 8, 0, 9, 0.00,60.00,Sunday
213,282255496.14067304
6085,282255496.14067286
2,8, 1, 8, 0,10, 0.00,60.00,Sunday
213,243615357.86447656
6085,243615357.86447632
2,8, 1, 8, 0,11, 0.00,60.00,Sunday
213,213197453.1716833
6085,213197453.17168313
2,8, 1, 8, 0,12, 0.00,60.00,Sunday
213,204615666.96049327
6085,204615666.9604931
2,8, 1, 8, 0,13, 0.00,60.00,Sunday
213,201530469.21901152
6085,201530469.21901134
2,8, 1, 8, 0,14, 0.00,60.00,Sunday
213,194870313.6415308
6085,194870313.64153063
2,8, 1, 8, 0,15, 0.00,60.00,Sunday
213,190036280.00539485
6085,190036280.00539467
2,8, 1, 8, 0,16, 0.00,60.00,Sunday
213,194152500.7415331
6085,194152500.7415329
2,8, 1, 8, 0,17, 0.00,60.00,Sunday
213,229230694.08999833
6085,229230694.0899982
2,8, 1, 8, 0,18, 0.00,60.00,Sunday
213,284664166.3703628
6085,284664166.3703633
2,8, 1, 8, 0,19, 0.00,60.00,Sunday
213,312809185.12181795
6085,312809185.1218185
2,8, 1, 8, 0,20, 0.00,60.00,Sunday
213,303917956.15723157
6085,303917956.15723205
2,8, 1, 8, 0,21, 0.00,60.00,Sunday
213,303489998.2318161
6085,303489998.2318166
2,8, 1, 8, 0,22, 0.00,60.00,Sunday
213,289057042.1597497
6085,289057042.15974987
2,8, 1, 8, 0,23, 0.00,60.00,Sunday
213,261970104.57545564
6085,261970104.57545546
2,8, 1, 8, 0,24, 0.00,60.00,Sunday
213,242711151.45143142
6085,242711151.4514312
2,9, 1, 9, 0, 1, 0.00,60.00,Monday
213,234561160.60522982
6085,234561160.60522982
2,9, 1, 9, 0, 2, 0.00,60.00,Monday
213,243669336.25339732
6085,243669336.25339726
2,9, 1, 9, 0, 3, 0.00,60.00,Monday
213,248314190.5824957
6085,248314190.58249557
2,9, 1, 9, 0, 4, 0.00,60.00,Monday
213,248919769.53831756
6085,248919769.5383175
2,9, 1, 9, 0, 5, 0.00,60.00,Monday
213,260553334.86830315
6085,260553334.8683031
2,9, 1, 9, 0, 6, 0.00,60.00,Monday
213,282376256.0643721
6085,282376256.064372
2,9, 1, 9, 0, 7, 0.00,60.00,Monday
213,312172405.0672122
6085,312172405.06721205
2,9, 1, 9, 0, 8, 0.00,60.00,Monday
213,314777458.60779774
6085,314777458.60779756
2,9, 1, 9, 0, 9, 0.00,60.00,Monday
213,291013967.1129929
6085,291013967.11299264
2,9, 1, 9, 0,10, 0.00,60.00,Monday
213,248317912.04864678
6085,248317912.04864663
2,9, 1, 9, 0,11, 0.00,60.00,Monday
213,215742120.13412818
6085,215742120.13412797
2,9, 1, 9, 0,12, 0.00,60.00,Monday
213,202343492.01200357
6085,202343492.01200336
2,9, 1, 9, 0,13, 0.00,60.00,Monday
213,193901241.51830527
6085,193901241.5183051
2,9, 1, 9, 0,14, 0.00,60.00,Monday
213,200664150.99253833
6085,200664150.99253815
2,9, 1, 9, 0,15, 0.00,60.00,Monday
213,208244361.91176236
6085,208244361.91176218
2,9, 1, 9, 0,16, 0.00,60.00,Monday
213,216250048.06491268
6085,216250048.0649125
2,9, 1, 9, 0,17, 0.00,60.00,Monday
213,238668100.77016404
6085,238668100.77016398
2,9, 1, 9, 0,18, 0.00,60.00,Monday
213,273674260.4082296
6085,273674260.40823007
2,9, 1, 9, 0,19, 0.00,60.00,Monday
213,305911030.9603717
6085,305911030.9603721
2,9, 1, 9, 0,20, 0.00,60.00,Monday
213,299256772.70093226
6085,299256772.7009328
2,9, 1, 9, 0,21, 0.00,60.00,Monday
213,299130273.06299615
6085,299130273.0629966
2,9, 1, 9, 0,22, 0.00,60.00,Monday
213,283572904.7689444
6085,283572904.76894444
2,9, 1, 9, 0,23, 0.00,60.00,Monday
213,251388429.66393656
6085,251388429.66393635
2,9, 1, 9, 0,24, 0.00,60.00,Monday
213,238532673.0292087
6085,238532673.0292085
2,10, 1,10, 0, 1, 0.00,60.00,Tuesday
213,235078801.86875623
6085,235078801.8687562
2,10, 1,10, 0, 2, 0.00,60.00,Tuesday
213,237399735.11443952
6085,237399735.1144394
2,10, 1,10, 0, 3, 0.00,60.00,Tuesday
213,240530911.92678142
6085,240530911.9267814
2,10, 1,10, 0, 4, 0.00,60.00,Tuesday
213,244384753.37808374
6085,244384753.37808365
2,10, 1,10, 0, 5, 0.00,60.00,Tuesday
213,252143037.23335892
6085,252143037.2333588
2,10, 1,10, 0, 6, 0.00,60.00,Tuesday
213,274035160.60308987
6085,274035160.60308975
2,10, 1,10, 0, 7, 0.00,60.00,Tuesday
213,304008161.6549844
6085,304008161.65498424
2,10, 1,10, 0, 8, 0.00,60.00,Tuesday
213,307516903.6864
6085,307516903.6863998
2,10, 1,10, 0, 9, 0.00,60.00,Tuesday
213,288546336.4098878
6085,288546336.4098876
2,10, 1,10, 0,10, 0.00,60.00,Tuesday
213,249217793.2920295
6085,249217793.29202932
2,10, 1,10, 0,11, 0.00,60.00,Tuesday
213,211438769.22606304
6085,211438769.22606283
2,10, 1,10, 0,12, 0.00,60.00,Tuesday
213,198582907.93979025
6085,198582907.93979004
2,10, 1,10, 0,13, 0.00,60.00,Tuesday
213,195041217.5172643
6085,195041217.51726413
2,10, 1,10, 0,14, 0.00,60.00,Tuesday
213,204588427.42630875
6085,204588427.42630863
2,10, 1,10, 0,15, 0.00,60.00,Tuesday
213,205604833.35562873
6085,205604833.3556286
2,10, 1,10, 0,16, 0.00,60.00,Tuesday
213,208818487.51026973
6085,208818487.51026955
2,10, 1,10, 0,17, 0.00,60.00,Tuesday
213,233382429.31167108
6085,233382429.3116709
2,10, 1,10, 0,18, 0.00,60.00,Tuesday
213,269993844.63774586
6085,269993844.63774633
2,10, 1,10, 0,19, 0.00,60.00,Tuesday
213,291770764.7505108
6085,291770764.7505113
2,10, 1,10, 0,20, 0.00,60.00,Tuesday
213,283503208.017973
6085,283503208.0179734
2,10, 1,10, 0,21, 0.00,60.00,Tuesday
213,284902223.72974914
6085,284902223.72974956
2,10, 1,10, 0,22, 0.00,60.00,Tuesday
213,269447571.33905643
6085,269447571.33905655
2,10, 1,10, 0,23, 0.00,60.00,Tuesday
213,237002589.75807106
6085,237002589.7580709
2,10, 1,10, 0,24, 0.00,60.00,Tuesday
213,209350080.38289085
6085,209350080.38289064
2,11, 1,11, 0, 1, 0.00,60.00,Wednesday
213,190331771.40536845
6085,190331771.4053684
2,11, 1,11, 0, 2, 0.00,60.00,Wednesday
213,186925563.14617354
6085,186925563.14617336
2,11, 1,11, 0, 3, 0.00,60.00,Wednesday
213,192774027.15878025
6085,192774027.1587801
2,11, 1,11, 0, 4, 0.00,60.00,Wednesday
213,195180700.25572857
6085,195180700.25572845
2,11, 1,11, 0, 5, 0.00,60.00,Wednesday
213,195820841.9776611
6085,195820841.97766098
2,11, 1,11, 0, 6, 0.00,60.00,Wednesday
213,220387976.5328303
6085,220387976.53283015
2,11, 1,11, 0, 7, 0.00,60.00,Wednesday
213,245324330.35074016
6085,245324330.35073996
2,11, 1,11, 0, 8, 0.00,60.00,Wednesday
213,242268665.0977486
6085,242268665.0977484
2,11, 1,11, 0, 9, 0.00,60.00,Wednesday
213,246062153.3507873
6085,246062153.3507871
2,11, 1,11, 0,10, 0.00,60.00,Wednesday
213,237218683.4202512
6085,237218683.420251
2,11, 1,11, 0,11, 0.00,60.00,Wednesday
213,220157606.79083854
6085,220157606.7908384
2,11, 1,11, 0,12, 0.00,60.00,Wednesday
213,230763103.67276978
6085,230763103.6727696
2,11, 1,11, 0,13, 0.00,60.00,Wednesday
213,227697221.88739103
6085,227697221.88739085
2,11, 1,11, 0,14, 0.00,60.00,Wednesday
213,219067368.89059612
6085,219067368.8905959
2,11, 1,11, 0,15, 0.00,60.00,Wednesday
213,231570888.11877453
6085,231570888.1187744
2,11, 1,11, 0,16, 0.00,60.00,Wednesday
213,248623617.36545348
6085,248623617.3654533
2,11, 1,11, 0,17, 0.00,60.00,Wednesday
213,284276822.6067237
6085,284276822.6067239
2,11, 1,11, 0,18, 0.00,60.00,Wednesday
213,338155933.5004635
6085,338155933.5004641
2,11, 1,11, 0,19, 0.00,60.00,Wednesday
213,359006285.16584074
6085,359006285.1658413
2,11, 1,11, 0,20, 0.00,60.00,Wednesday
213,346632606.3611531
6085,346632606.3611536
2,11, 1,11, 0,21, 0.00,60.00,Wednesday
213,341295224.88456976
6085,341295224.8845702
2,11, 1,11, 0,22, 0.00,60.00,Wednesday
213,323978498.69040585
6085,323978498.690406
2,11, 1,11, 0,23, 0.00,60.00,Wednesday
213,295032695.0137849
6085,295032695.01378477
2,11, 1,11, 0,24, 0.00,60.00,Wednesday
213,275877112.3024707
6085,275877112.30247056
2,12, 1,12, 0, 1, 0.00,60.00,Thursday
213,262391858.62325585
6085,262391858.6232558
2,12, 1,12, 0, 2, 0.00,60.00,Thursday
213,260659438.07915983
6085,260659438.07915974
2,12, 1,12, 0, 3, 0.00,60.00,Thursday
213,260295783.59600317
6085,260295783.59600306
2,12, 1,12, 0, 4, 0.00,60.00,Thursday
213,259735237.73824817
6085,259735237.73824805
2,12, 1,12, 0, 5, 0.00,60.00,Thursday
213,263106177.80745697
6085,263106177.8074569
2,12, 1,12, 0, 6, 0.00,60.00,Thursday
213,286113195.73712796
6085,286113195.7371279
2,12, 1,12, 0, 7, 0.00,60.00,Thursday
213,311259629.4361131
6085,311259629.43611294
2,12, 1,12, 0, 8, 0.00,60.00,Thursday
213,308043212.0123095
6085,308043212.01230943
2,12, 1,12, 0, 9, 0.00,60.00,Thursday
213,310762106.04247504
6085,310762106.04247487
2,12, 1,12, 0,10, 0.00,60.00,Thursday
213,297265951.42281896
6085,297265951.4228188
2,12, 1,12, 0,11, 0.00,60.00,Thursday
213,270595360.1800618
6085,270595360.1800616
2,12, 1,12, 0,12, 0.00,60.00,Thursday
213,273931314.98051435
6085,273931314.9805142
2,12, 1,12, 0,13, 0.00,60.00,Thursday
213,267037231.73890263
6085,267037231.73890242
2,12, 1,12, 0,14, 0.00,60.00,Thursday
213,255150892.2957753
6085,255150892.2957751
2,12, 1,12, 0,15, 0.00,60.00,Thursday
213,264494404.43369022
6085,264494404.43369
2,12, 1,12, 0,16, 0.00,60.00,Thursday
213,276711001.6469467
6085,276711001.64694667
2,12, 1,12, 0,17, 0.00,60.00,Thursday
213,312100154.8643666
6085,312100154.86436677
2,12, 1,12, 0,18, 0.00,60.00,Thursday
213,367818106.94684607
6085,367818106.9468466
2,12, 1,12, 0,19, 0.00,60.00,Thursday
213,381629537.7253579
6085,381629537.7253585
2,12, 1,12, 0,20, 0.00,60.00,Thursday
213,364717785.2774653
6085,364717785.27746576
2,12, 1,12, 0,21, 0.00,60.00,Thursday
213,364843526.40177536
6085,364843526.40177584
2,12, 1,12, 0,22, 0.00,60.00,Thursday
213,346107383.1648281
6085,346107383.16482824
2,12, 1,12, 0,23, 0.00,60.00,Thursday
213,309822772.1170643
6085,309822772.1170641
2,12, 1,12, 0,24, 0.00,60.00,Thursday
213,290817811.13210565
6085,290817811.13210547
2,13, 1,13, 0, 1, 0.00,60.00,Friday
213,278721571.0141454
6085,278721571.0141453
2,13, 1,13, 0, 2, 0.00,60.00,Friday
213,273984716.50173223
6085,273984716.5017321
2,13, 1,13, 0, 3, 0.00,60.00,Friday
213,279389335.86473686
6085,279389335.86473674
2,13, 1,13, 0, 4, 0.00,60.00,Friday
213,278795361.0539638
6085,278795361.0539637
2,13, 1,13, 0, 5, 0.00,60.00,Friday
213,276277856.592846
6085,276277856.5928459
2,13, 1,13, 0, 6, 0.00,60.00,Friday
213,297994051.20161796
6085,297994051.2016178
2,13, 1,13, 0, 7, 0.00,60.00,Friday
213,320764155.279598
6085,320764155.2795979
2,13, 1,13, 0, 8, 0.00,60.00,Friday
213,316907046.9909246
6085,316907046.9909244
2,13, 1,13, 0, 9, 0.00,60.00,Friday
213,315347843.05736226
6085,315347843.0573621
2,13, 1,13, 0,10, 0.00,60.00,Friday
213,301148969.91434515
6085,301148969.91434497
2,13, 1,13, 0,11, 0.00,60.00,Friday
213,284230067.1264424
6085,284230067.1264422
2,13, 1,13, 0,12, 0.00,60.00,Friday
213,281789455.98635155
6085,281789455.9863514
2,13, 1,13, 0,13, 0.00,60.00,Friday
213,275626483.9069613
6085,275626483.9069612
2,13, 1,13, 0,14, 0.00,60.00,Friday
213,274437729.75032526
6085,274437729.75032514
2,13, 1,13, 0,15, 0.00,60.00,Friday
213,274930828.82998043
6085,274930828.82998025
2,13, 1,13, 0,16, 0.00,60.00,Friday
213,284448712.177878
6085,284448712.1778779
2,13, 1,13, 0,17, 0.00,60.00,Friday
213,319212642.8440213
6085,319212642.84402156
2,13, 1,13, 0,18, 0.00,60.00,Friday
213,369853314.0646569
6085,369853314.0646575
2,13, 1,13, 0,19, 0.00,60.00,Friday
213,386601270.3532287
6085,386601270.3532292
2,13, 1,13, 0,20, 0.00,60.00,Friday
213,373812766.5054006
6085,373812766.5054011
2,13, 1,13, 0,21, 0.00,60.00,Friday
213,374913954.40802366
6085,374913954.40802413
2,13, 1,13, 0,22, 0.00,60.00,Friday
213,356699791.7987224
6085,356699791.7987225
2,13, 1,13, 0,23, 0.00,60.00,Friday
213,320489842.79542047
6085,320489842.7954203
2,13, 1,13, 0,24, 0.00,60.00,Friday
213,295075380.912779
6085,295075380.91277874
2,14, 1,14, 0, 1, 0.00,60.00,Saturday
213,282366952.99716735
6085,282366952.9971674
2,14, 1,14, 0, 2, 0.00,60.00,Saturday
213,280946765.6004652
6085,280946765.60046506
2,14, 1,14, 0, 3, 0.00,60.00,Saturday
213,284933255.3653118
6085,284933255.36531174
2,14, 1,14, 0, 4, 0.00,60.00,Saturday
213,284084930.1927355
6085,284084930.19273543
2,14, 1,14, 0, 5, 0.00,60.00,Saturday
213,282663018.7256663
6085,282663018.7256662
2,14, 1,14, 0, 6, 0.00,60.00,Saturday
213,303388468.4570472
6085,303388468.457047
2,14, 1,14, 0, 7, 0.00,60.00,Saturday
213,325180859.6424591
6085,325180859.6424589
2,14, 1,14, 0, 8, 0.00,60.00,Saturday
213,318987995.0258596
6085,318987995.0258594
2,14, 1,14, 0, 9, 0.00,60.00,Saturday
213,311200364.5727581
6085,311200364.5727579
2,14, 1,14, 0,10, 0.00,60.00,Saturday
213,297728846.2757984
6085,297728846.27579814
2,14, 1,14, 0,11, 0.00,60.00,Saturday
213,275738009.69275856
6085,275738009.6927584
2,14, 1,14, 0,12, 0.00,60.00,Saturday
213,286509236.3792297
6085,286509236.37922955
2,14, 1,14, 0,13, 0.00,60.00,Saturday
213,282900156.87588376
6085,282900156.8758835
2,14, 1,14, 0,14, 0.00,60.00,Saturday
213,270459969.00717705
6085,270459969.0071768
2,14, 1,14, 0,15, 0.00,60.00,Saturday
213,281122673.81717837
6085,281122673.8171782
2,14, 1,14, 0,16, 0.00,60.00,Saturday
213,294125615.4693865
6085,294125615.4693864
2,14, 1,14, 0,17, 0.00,60.00,Saturday
213,318682104.7970558
6085,318682104.7970559
2,14, 1,14, 0,18, 0.00,60.00,Saturday
213,377169573.27187246
6085,377169573.271873
2,14, 1,14, 0,19, 0.00,60.00,Saturday
213,399965738.5358408
6085,399965738.5358413
2,14, 1,14, 0,20, 0.00,60.00,Saturday
213,383257527.8082885
6085,383257527.80828905
2,14, 1,14, 0,21, 0.00,60.00,Saturday
213,381174076.91481745
6085,381174076.91481805
2,14, 1,14, 0,22, 0.00,60.00,Saturday
213,359355292.65421927
6085,359355292.6542195
2,14, 1,14, 0,23, 0.00,60.00,Saturday
213,322456003.66000056
6085,322456003.6600003
2,14, 1,14, 0,24, 0.00,60.00,Saturday
213,298093719.20966405
6085,298093719.209664
2,15, 1,15, 0, 1, 0.00,60.00,Sunday
213,281412216.0373202
6085,281412216.03732026
2,15, 1,15, 0, 2, 0.00,60.00,Sunday
213,277329611.92319334
6085,277329611.92319334
2,15, 1,15, 0, 3, 0.00,60.00,Sunday
213,281631669.0959343
6085,281631669.09593415
2,15, 1,15, 0, 4, 0.00,60.00,Sunday
213,280887515.1190139
6085,280887515.1190138
2,15, 1,15, 0, 5, 0.00,60.00,Sunday
213,279550060.9607383
6085,279550060.96073824
2,15, 1,15, 0, 6, 0.00,60.00,Sunday
213,293212268.86994743
6085,293212268.86994725
2,15, 1,15, 0, 7, 0.00,60.00,Sunday
213,317420394.787307
6085,317420394.78730685
2,15, 1,15, 0, 8, 0.00,60.00,Sunday
213,319835632.43886626
6085,319835632.4388661
2,15, 1,15, 0, 9, 0.00,60.00,Sunday
213,319156089.4025569
6085,319156089.4025567
2,15, 1,15, 0,10, 0.00,60.00,Sunday
213,312602800.8289864
6085,312602800.8289862
2,15, 1,15, 0,11, 0.00,60.00,Sunday
213,294276435.96787506
6085,294276435.9678749
2,15, 1,15, 0,12, 0.00,60.00,Sunday
213,295922444.3567058
6085,295922444.3567056
2,15, 1,15, 0,13, 0.00,60.00,Sunday
213,293880256.26393783
6085,293880256.26393765
2,15, 1,15, 0,14, 0.00,60.00,Sunday
213,290594698.86878264
6085,290594698.86878246
2,15, 1,15, 0,15, 0.00,60.00,Sunday
213,290438540.07724625
6085,290438540.07724607
2,15, 1,15, 0,16, 0.00,60.00,Sunday
213,303699607.67355967
6085,303699607.6735595
2,15, 1,15, 0,17, 0.00,60.00,Sunday
213,334357551.5400329
6085,334357551.540033
2,15, 1,15, 0,18, 0.00,60.00,Sunday
213,379132631.255359
6085,379132631.2553594
2,15, 1,15, 0,19, 0.00,60.00,Sunday
213,402679467.2544682