Program Version,EnergyPlus, Version 26.1.0-6f2e40d102, YMD=2026.04.15 00:08
1,5,Environment Title[],Latitude[deg],Longitude[deg],Time Zone[],Elevation[m]
2,8,Day of Simulation[],Month[],Day of Month[],DST Indicator[1=yes 0=no],Hour[],StartMinute[],EndMinute[],DayType
3,5,Cumulative Day of Simulation[],Month[],Day of Month[],DST Indicator[1=yes 0=no],DayType  ! When Daily Meters Requested
4,2,Cumulative Days of Simulation[],Month[]  ! When Monthly Meters Requested
5,1,Cumulative Days of Simulation[] ! When Run Period Meters Requested
6,1,Calendar Year of Simulation[] ! When Annual Meters Requested
213,1,Electricity:Facility [J] !Hourly
5925,1,ElectricityNet:Facility [J] !Hourly
End of Data Dictionary
1,RUNPERIOD 1,  28.11, 112.79,   8.00, 120.00
2,1, 1, 1, 0, 1, 0.00,60.00,Sunday
213,77069747.9445224
5925,77069747.94452238
2,1, 1, 1, 0, 2, 0.00,60.00,Sunday
213,81341312.69511028
5925,81341312.69511028
2,1, 1, 1, 0, 3, 0.00,60.00,Sunday
213,86177148.76542921
5925,86177148.76542918
2,1, 1, 1, 0, 4, 0.00,60.00,Sunday
213,79484579.02283028
5925,79484579.02283028
2,1, 1, 1, 0, 5, 0.00,60.00,Sunday
213,89447736.12607384
5925,89447736.12607384
2,1, 1, 1, 0, 6, 0.00,60.00,Sunday
213,116112951.55156836
5925,116112951.55156836
2,1, 1, 1, 0, 7, 0.00,60.00,Sunday
213,181538591.66069797
5925,181538591.66069797
2,1, 1, 1, 0, 8, 0.00,60.00,Sunday
213,185760896.13129306
5925,185760896.131293
2,1, 1, 1, 0, 9, 0.00,60.00,Sunday
213,165432281.38640696
5925,165432281.38640696
2,1, 1, 1, 0,10, 0.00,60.00,Sunday
213,145569758.53497577
5925,145569758.53497574
2,1, 1, 1, 0,11, 0.00,60.00,Sunday
213,146616542.1133504
5925,146616542.1133504
2,1, 1, 1, 0,12, 0.00,60.00,Sunday
213,127692711.3962335
5925,127692711.39623351
2,1, 1, 1, 0,13, 0.00,60.00,Sunday
213,117201333.35681117
5925,117201333.35681115
2,1, 1, 1, 0,14, 0.00,60.00,Sunday
213,122700495.6245346
5925,122700495.6245346
2,1, 1, 1, 0,15, 0.00,60.00,Sunday
213,101589695.85012653
5925,101589695.85012653
2,1, 1, 1, 0,16, 0.00,60.00,Sunday
213,127327797.06781182
5925,127327797.06781185
2,1, 1, 1, 0,17, 0.00,60.00,Sunday
213,147552567.9190706
5925,147552567.91907054
2,1, 1, 1, 0,18, 0.00,60.00,Sunday
213,188217677.3505402
5925,188217677.3505406
2,1, 1, 1, 0,19, 0.00,60.00,Sunday
213,226231935.67659974
5925,226231935.6766
2,1, 1, 1, 0,20, 0.00,60.00,Sunday
213,209777777.60491008
5925,209777777.60491043
2,1, 1, 1, 0,21, 0.00,60.00,Sunday
213,212845272.32114744
5925,212845272.32114777
2,1, 1, 1, 0,22, 0.00,60.00,Sunday
213,183595167.420079
5925,183595167.4200791
2,1, 1, 1, 0,23, 0.00,60.00,Sunday
213,154406340.86694723
5925,154406340.86694723
2,1, 1, 1, 0,24, 0.00,60.00,Sunday
213,115952962.99377473
5925,115952962.99377471
2,2, 1, 2, 0, 1, 0.00,60.00,Holiday
213,84244216.06999716
5925,84244216.06999715
2,2, 1, 2, 0, 2, 0.00,60.00,Holiday
213,87660109.91479814
5925,87660109.91479811
2,2, 1, 2, 0, 3, 0.00,60.00,Holiday
213,76102267.09576856
5925,76102267.09576856
2,2, 1, 2, 0, 4, 0.00,60.00,Holiday
213,76909738.12086618
5925,76909738.12086615
2,2, 1, 2, 0, 5, 0.00,60.00,Holiday
213,89668723.63189363
5925,89668723.6318936
2,2, 1, 2, 0, 6, 0.00,60.00,Holiday
213,116329656.56056786
5925,116329656.56056784
2,2, 1, 2, 0, 7, 0.00,60.00,Holiday
213,181863247.8426987
5925,181863247.84269872
2,2, 1, 2, 0, 8, 0.00,60.00,Holiday
213,186103801.26646057
5925,186103801.2664606
2,2, 1, 2, 0, 9, 0.00,60.00,Holiday
213,165732031.6014644
5925,165732031.60146442
2,2, 1, 2, 0,10, 0.00,60.00,Holiday
213,145878827.31678027
5925,145878827.31678024
2,2, 1, 2, 0,11, 0.00,60.00,Holiday
213,147016209.55482918
5925,147016209.55482912
2,2, 1, 2, 0,12, 0.00,60.00,Holiday
213,133489344.39464158
5925,133489344.39464155
2,2, 1, 2, 0,13, 0.00,60.00,Holiday
213,125195533.02432626
5925,125195533.02432625
2,2, 1, 2, 0,14, 0.00,60.00,Holiday
213,109739210.8272033
5925,109739210.82720329
2,2, 1, 2, 0,15, 0.00,60.00,Holiday
213,114947288.10937813
5925,114947288.10937811
2,2, 1, 2, 0,16, 0.00,60.00,Holiday
213,113865480.61706986
5925,113865480.61706987
2,2, 1, 2, 0,17, 0.00,60.00,Holiday
213,154996581.99543676
5925,154996581.99543673
2,2, 1, 2, 0,18, 0.00,60.00,Holiday
213,185125981.50963598
5925,185125981.5096363
2,2, 1, 2, 0,19, 0.00,60.00,Holiday
213,226420508.86235842
5925,226420508.8623587
2,2, 1, 2, 0,20, 0.00,60.00,Holiday
213,216080275.2570896
5925,216080275.25708994
2,2, 1, 2, 0,21, 0.00,60.00,Holiday
213,201622184.202191
5925,201622184.2021913
2,2, 1, 2, 0,22, 0.00,60.00,Holiday
213,181718171.06101674
5925,181718171.0610168
2,2, 1, 2, 0,23, 0.00,60.00,Holiday
213,154601940.06867662
5925,154601940.06867662
2,2, 1, 2, 0,24, 0.00,60.00,Holiday
213,116195170.8102787
5925,116195170.8102787
2,3, 1, 3, 0, 1, 0.00,60.00,Tuesday
213,97630136.60670201
5925,97630136.606702
2,3, 1, 3, 0, 2, 0.00,60.00,Tuesday
213,80116409.96026301
5925,80116409.960263
2,3, 1, 3, 0, 3, 0.00,60.00,Tuesday
213,75365672.60428825
5925,75365672.60428825
2,3, 1, 3, 0, 4, 0.00,60.00,Tuesday
213,86085495.35210732
5925,86085495.35210729
2,3, 1, 3, 0, 5, 0.00,60.00,Tuesday
213,83880378.27350593
5925,83880378.27350593
2,3, 1, 3, 0, 6, 0.00,60.00,Tuesday
213,116783401.28602673
5925,116783401.28602672
2,3, 1, 3, 0, 7, 0.00,60.00,Tuesday
213,182239670.5992056
5925,182239670.5992056
2,3, 1, 3, 0, 8, 0.00,60.00,Tuesday
213,179015447.300607
5925,179015447.300607
2,3, 1, 3, 0, 9, 0.00,60.00,Tuesday
213,177872352.15443727
5925,177872352.1544373
2,3, 1, 3, 0,10, 0.00,60.00,Tuesday
213,156368287.3955941
5925,156368287.39559403
2,3, 1, 3, 0,11, 0.00,60.00,Tuesday
213,145485296.04380292
5925,145485296.04380292
2,3, 1, 3, 0,12, 0.00,60.00,Tuesday
213,130603286.45899343
5925,130603286.45899343
2,3, 1, 3, 0,13, 0.00,60.00,Tuesday
213,129136326.7709182
5925,129136326.77091818
2,3, 1, 3, 0,14, 0.00,60.00,Tuesday
213,114179171.45360535
5925,114179171.45360535
2,3, 1, 3, 0,15, 0.00,60.00,Tuesday
213,126754124.43807122
5925,126754124.43807122
2,3, 1, 3, 0,16, 0.00,60.00,Tuesday
213,131800022.12535919
5925,131800022.12535919
2,3, 1, 3, 0,17, 0.00,60.00,Tuesday
213,138866889.5981441
5925,138866889.5981441
2,3, 1, 3, 0,18, 0.00,60.00,Tuesday
213,199420159.06499207
5925,199420159.0649924
2,3, 1, 3, 0,19, 0.00,60.00,Tuesday
213,213080425.39142174
5925,213080425.3914221
2,3, 1, 3, 0,20, 0.00,60.00,Tuesday
213,223816332.59694153
5925,223816332.59694183
2,3, 1, 3, 0,21, 0.00,60.00,Tuesday
213,199710484.77849555
5925,199710484.7784959
2,3, 1, 3, 0,22, 0.00,60.00,Tuesday
213,183938106.33210674
5925,183938106.3321068
2,3, 1, 3, 0,23, 0.00,60.00,Tuesday
213,154740853.23686174
5925,154740853.2368617
2,3, 1, 3, 0,24, 0.00,60.00,Tuesday
213,116223066.23080063
5925,116223066.2308006
2,4, 1, 4, 0, 1, 0.00,60.00,Wednesday
213,90631323.27873178
5925,90631323.27873173
2,4, 1, 4, 0, 2, 0.00,60.00,Wednesday
213,81999840.12307025
5925,81999840.12307021
2,4, 1, 4, 0, 3, 0.00,60.00,Wednesday
213,86975074.25778946
5925,86975074.25778942
2,4, 1, 4, 0, 4, 0.00,60.00,Wednesday
213,80263954.44097772
5925,80263954.4409777
2,4, 1, 4, 0, 5, 0.00,60.00,Wednesday
213,77043755.24524507
5925,77043755.24524504
2,4, 1, 4, 0, 6, 0.00,60.00,Wednesday
213,116853273.54744816
5925,116853273.54744813
2,4, 1, 4, 0, 7, 0.00,60.00,Wednesday
213,182276700.71022257
5925,182276700.71022257
2,4, 1, 4, 0, 8, 0.00,60.00,Wednesday
213,186836390.61664972
5925,186836390.6166497
2,4, 1, 4, 0, 9, 0.00,60.00,Wednesday
213,170375828.90726033
5925,170375828.90726033
2,4, 1, 4, 0,10, 0.00,60.00,Wednesday
213,163995072.82400173
5925,163995072.82400173
2,4, 1, 4, 0,11, 0.00,60.00,Wednesday
213,137720259.44368306
5925,137720259.44368306
2,4, 1, 4, 0,12, 0.00,60.00,Wednesday
213,137267027.33043164
5925,137267027.33043164
2,4, 1, 4, 0,13, 0.00,60.00,Wednesday
213,128222314.49214937
5925,128222314.49214932
2,4, 1, 4, 0,14, 0.00,60.00,Wednesday
213,126569516.10608754
5925,126569516.10608752
2,4, 1, 4, 0,15, 0.00,60.00,Wednesday
213,105462330.26115814
5925,105462330.26115812
2,4, 1, 4, 0,16, 0.00,60.00,Wednesday
213,131101151.86362273
5925,131101151.8636227
2,4, 1, 4, 0,17, 0.00,60.00,Wednesday
213,158855415.56460196
5925,158855415.56460196
2,4, 1, 4, 0,18, 0.00,60.00,Wednesday
213,185459990.2049278
5925,185459990.2049281
2,4, 1, 4, 0,19, 0.00,60.00,Wednesday
213,226305807.78242326
5925,226305807.7824235
2,4, 1, 4, 0,20, 0.00,60.00,Wednesday
213,202202819.89419276
5925,202202819.89419305
2,4, 1, 4, 0,21, 0.00,60.00,Wednesday
213,217231220.3465011
5925,217231220.34650138
2,4, 1, 4, 0,22, 0.00,60.00,Wednesday
213,179403436.6175741
5925,179403436.61757416
2,4, 1, 4, 0,23, 0.00,60.00,Wednesday
213,140984155.00198397
5925,140984155.00198397
2,4, 1, 4, 0,24, 0.00,60.00,Wednesday
213,129130708.57781953
5925,129130708.5778195
2,5, 1, 5, 0, 1, 0.00,60.00,Thursday
213,84231243.98417825
5925,84231243.98417822
2,5, 1, 5, 0, 2, 0.00,60.00,Thursday
213,94647061.97060153
5925,94647061.97060153
2,5, 1, 5, 0, 3, 0.00,60.00,Thursday
213,73376829.9860314
5925,73376829.98603138
2,5, 1, 5, 0, 4, 0.00,60.00,Thursday
213,72739797.94717023
5925,72739797.9471702
2,5, 1, 5, 0, 5, 0.00,60.00,Thursday
213,96566523.60580659
5925,96566523.60580656
2,5, 1, 5, 0, 6, 0.00,60.00,Thursday
213,116409811.78260651
5925,116409811.78260648
2,5, 1, 5, 0, 7, 0.00,60.00,Thursday
213,182040647.67491168
5925,182040647.67491162
2,5, 1, 5, 0, 8, 0.00,60.00,Thursday
213,178896691.99821183
5925,178896691.99821183
2,5, 1, 5, 0, 9, 0.00,60.00,Thursday
213,177396022.97431934
5925,177396022.97431934
2,5, 1, 5, 0,10, 0.00,60.00,Thursday
213,141766871.53098774
5925,141766871.53098774
2,5, 1, 5, 0,11, 0.00,60.00,Thursday
213,157677078.64797264
5925,157677078.64797264
2,5, 1, 5, 0,12, 0.00,60.00,Thursday
213,129175422.6505936
5925,129175422.6505936
2,5, 1, 5, 0,13, 0.00,60.00,Thursday
213,121443389.33464389
5925,121443389.3346439
2,5, 1, 5, 0,14, 0.00,60.00,Thursday
213,118699212.53473608
5925,118699212.53473608
2,5, 1, 5, 0,15, 0.00,60.00,Thursday
213,124996243.88788773
5925,124996243.88788773
2,5, 1, 5, 0,16, 0.00,60.00,Thursday
213,116726017.20057468
5925,116726017.20057468
2,5, 1, 5, 0,17, 0.00,60.00,Thursday
213,150812009.65998632
5925,150812009.65998632
2,5, 1, 5, 0,18, 0.00,60.00,Thursday
213,184866760.52233922
5925,184866760.52233955
2,5, 1, 5, 0,19, 0.00,60.00,Thursday
213,225871691.1569585
5925,225871691.1569588
2,5, 1, 5, 0,20, 0.00,60.00,Thursday
213,223043605.59819245
5925,223043605.5981928
2,5, 1, 5, 0,21, 0.00,60.00,Thursday
213,199002297.09304354
5925,199002297.0930438
2,5, 1, 5, 0,22, 0.00,60.00,Thursday
213,183219408.6331848
5925,183219408.6331848
2,5, 1, 5, 0,23, 0.00,60.00,Thursday
213,153816168.52397525
5925,153816168.52397522
2,5, 1, 5, 0,24, 0.00,60.00,Thursday
213,115087715.0375239
5925,115087715.03752387
2,6, 1, 6, 0, 1, 0.00,60.00,Friday
213,84962856.94311088
5925,84962856.94311085
2,6, 1, 6, 0, 2, 0.00,60.00,Friday
213,85137359.3495652
5925,85137359.34956518
2,6, 1, 6, 0, 3, 0.00,60.00,Friday
213,75993781.03165084
5925,75993781.03165083
2,6, 1, 6, 0, 4, 0.00,60.00,Friday
213,88455551.98721184
5925,88455551.9872118
2,6, 1, 6, 0, 5, 0.00,60.00,Friday
213,75788334.52099466
5925,75788334.52099465
2,6, 1, 6, 0, 6, 0.00,60.00,Friday
213,115613008.86629356
5925,115613008.86629356
2,6, 1, 6, 0, 7, 0.00,60.00,Friday
213,181874524.23989123
5925,181874524.23989117
2,6, 1, 6, 0, 8, 0.00,60.00,Friday
213,185209632.7612884
5925,185209632.7612884
2,6, 1, 6, 0, 9, 0.00,60.00,Friday
213,169005802.8995119
5925,169005802.8995119
2,6, 1, 6, 0,10, 0.00,60.00,Friday
213,162435540.68894294
5925,162435540.6889429
2,6, 1, 6, 0,11, 0.00,60.00,Friday
213,136391350.67261577
5925,136391350.67261574
2,6, 1, 6, 0,12, 0.00,60.00,Friday
213,137591162.33757332
5925,137591162.33757332
2,6, 1, 6, 0,13, 0.00,60.00,Friday
213,130879161.60565165
5925,130879161.60565165
2,6, 1, 6, 0,14, 0.00,60.00,Friday
213,118140311.8150919
5925,118140311.81509191
2,6, 1, 6, 0,15, 0.00,60.00,Friday
213,129088760.23863757
5925,129088760.23863757
2,6, 1, 6, 0,16, 0.00,60.00,Friday
213,128799554.66528064
5925,128799554.66528063
2,6, 1, 6, 0,17, 0.00,60.00,Friday
213,155230674.46670327
5925,155230674.46670324
2,6, 1, 6, 0,18, 0.00,60.00,Friday
213,199165828.72872925
5925,199165828.7287296
2,6, 1, 6, 0,19, 0.00,60.00,Friday
213,212053953.888665
5925,212053953.8886653
2,6, 1, 6, 0,20, 0.00,60.00,Friday
213,216183371.98276073
5925,216183371.98276106
2,6, 1, 6, 0,21, 0.00,60.00,Friday
213,203869397.23884463
5925,203869397.23884496
2,6, 1, 6, 0,22, 0.00,60.00,Friday
213,178079599.47001714
5925,178079599.4700171
2,6, 1, 6, 0,23, 0.00,60.00,Friday
213,155227337.6862659
5925,155227337.6862659
2,6, 1, 6, 0,24, 0.00,60.00,Friday
213,113410379.49417508
5925,113410379.49417508
2,7, 1, 7, 0, 1, 0.00,60.00,Saturday
213,96288333.01201418
5925,96288333.01201415
2,7, 1, 7, 0, 2, 0.00,60.00,Saturday
213,79020890.6028711
5925,79020890.6028711
2,7, 1, 7, 0, 3, 0.00,60.00,Saturday
213,81335832.78262153
5925,81335832.78262152
2,7, 1, 7, 0, 4, 0.00,60.00,Saturday
213,79919363.93117669
5925,79919363.93117668
2,7, 1, 7, 0, 5, 0.00,60.00,Saturday
213,81280642.84807289
5925,81280642.84807287
2,7, 1, 7, 0, 6, 0.00,60.00,Saturday
213,115943738.60271311
5925,115943738.6027131
2,7, 1, 7, 0, 7, 0.00,60.00,Saturday
213,181697515.6591164
5925,181697515.65911636
2,7, 1, 7, 0, 8, 0.00,60.00,Saturday
213,182071361.39669985
5925,182071361.39669985
2,7, 1, 7, 0, 9, 0.00,60.00,Saturday
213,167102264.1573901
5925,167102264.15739006
2,7, 1, 7, 0,10, 0.00,60.00,Saturday
213,156632969.95775533
5925,156632969.95775527
2,7, 1, 7, 0,11, 0.00,60.00,Saturday
213,135526914.18996105
5925,135526914.18996105
2,7, 1, 7, 0,12, 0.00,60.00,Saturday
213,129227968.84664491
5925,129227968.84664488
2,7, 1, 7, 0,13, 0.00,60.00,Saturday
213,124681958.56490284
5925,124681958.56490284
2,7, 1, 7, 0,14, 0.00,60.00,Saturday
213,122542604.25381212
5925,122542604.2538121
2,7, 1, 7, 0,15, 0.00,60.00,Saturday
213,110204690.51502118
5925,110204690.51502118
2,7, 1, 7, 0,16, 0.00,60.00,Saturday
213,131005038.02269138
5925,131005038.02269138
2,7, 1, 7, 0,17, 0.00,60.00,Saturday
213,145377341.4457687
5925,145377341.44576868
2,7, 1, 7, 0,18, 0.00,60.00,Saturday
213,194797431.46423575
5925,194797431.46423608
2,7, 1, 7, 0,19, 0.00,60.00,Saturday
213,217098399.74867016
5925,217098399.74867046
2,7, 1, 7, 0,20, 0.00,60.00,Saturday
213,213528026.2593148
5925,213528026.2593151
2,7, 1, 7, 0,21, 0.00,60.00,Saturday
213,207921855.44190717
5925,207921855.44190753
2,7, 1, 7, 0,22, 0.00,60.00,Saturday
213,181340368.53405917
5925,181340368.53405917
2,7, 1, 7, 0,23, 0.00,60.00,Saturday
213,154209015.76684827
5925,154209015.76684827
2,7, 1, 7, 0,24, 0.00,60.00,Saturday
213,113956170.36311075
5925,113956170.36311075
2,8, 1, 8, 0, 1, 0.00,60.00,Sunday
213,87485833.85839623
5925,87485833.8583962
2,8, 1, 8, 0, 2, 0.00,60.00,Sunday
213,84113592.87061499
5925,84113592.87061498
2,8, 1, 8, 0, 3, 0.00,60.00,Sunday
213,82075435.14185207
5925,82075435.14185207
2,8, 1, 8, 0, 4, 0.00,60.00,Sunday
213,73691947.4062149
5925,73691947.40621486
2,8, 1, 8, 0, 5, 0.00,60.00,Sunday
213,88977214.13971224
5925,88977214.13971223
2,8, 1, 8, 0, 6, 0.00,60.00,Sunday
213,113983056.5692837
5925,113983056.56928368
2,8, 1, 8, 0, 7, 0.00,60.00,Sunday
213,183016872.92216533
5925,183016872.92216536
2,8, 1, 8, 0, 8, 0.00,60.00,Sunday
213,181337058.86089647
5925,181337058.86089644
2,8, 1, 8, 0, 9, 0.00,60.00,Sunday
213,167617985.88743985
5925,167617985.88743985
2,8, 1, 8, 0,10, 0.00,60.00,Sunday
213,148432528.11457288
5925,148432528.11457288
2,8, 1, 8, 0,11, 0.00,60.00,Sunday
213,147013716.2066366
5925,147013716.2066366
2,8, 1, 8, 0,12, 0.00,60.00,Sunday
213,134252815.8427759
5925,134252815.84277588
2,8, 1, 8, 0,13, 0.00,60.00,Sunday
213,138247061.6115432
5925,138247061.61154324
2,8, 1, 8, 0,14, 0.00,60.00,Sunday
213,126278842.96282451
5925,126278842.96282448
2,8, 1, 8, 0,15, 0.00,60.00,Sunday
213,128679184.60583739
5925,128679184.60583736
2,8, 1, 8, 0,16, 0.00,60.00,Sunday
213,134002214.3521294
5925,134002214.35212938
2,8, 1, 8, 0,17, 0.00,60.00,Sunday
213,159014307.74215776
5925,159014307.7421577
2,8, 1, 8, 0,18, 0.00,60.00,Sunday
213,197448556.23192975
5925,197448556.23193008
2,8, 1, 8, 0,19, 0.00,60.00,Sunday
213,223970878.43346652
5925,223970878.43346685
2,8, 1, 8, 0,20, 0.00,60.00,Sunday
213,220026863.1280539
5925,220026863.1280542
2,8, 1, 8, 0,21, 0.00,60.00,Sunday
213,205142493.44693446
5925,205142493.44693476
2,8, 1, 8, 0,22, 0.00,60.00,Sunday
213,184618005.40095755
5925,184618005.40095758
2,8, 1, 8, 0,23, 0.00,60.00,Sunday
213,151408736.1699481
5925,151408736.1699481
2,8, 1, 8, 0,24, 0.00,60.00,Sunday
213,115202293.70711695
5925,115202293.70711695
2,9, 1, 9, 0, 1, 0.00,60.00,Monday
213,93474051.26675336
5925,93474051.26675332
2,9, 1, 9, 0, 2, 0.00,60.00,Monday
213,76152082.1233038
5925,76152082.1233038
2,9, 1, 9, 0, 3, 0.00,60.00,Monday
213,82054507.7813451
5925,82054507.7813451
2,9, 1, 9, 0, 4, 0.00,60.00,Monday
213,81221832.57573491
5925,81221832.57573488
2,9, 1, 9, 0, 5, 0.00,60.00,Monday
213,81896117.87451115
5925,81896117.87451112
2,9, 1, 9, 0, 6, 0.00,60.00,Monday
213,115088245.47135997
5925,115088245.47135995
2,9, 1, 9, 0, 7, 0.00,60.00,Monday
213,182529523.91345775
5925,182529523.91345772
2,9, 1, 9, 0, 8, 0.00,60.00,Monday
213,184012973.8875324
5925,184012973.8875324
2,9, 1, 9, 0, 9, 0.00,60.00,Monday
213,168955021.92637333
5925,168955021.9263733
2,9, 1, 9, 0,10, 0.00,60.00,Monday
213,158907553.88693
5925,158907553.88693
2,9, 1, 9, 0,11, 0.00,60.00,Monday
213,145542793.37668335
5925,145542793.37668335
2,9, 1, 9, 0,12, 0.00,60.00,Monday
213,148190072.98319486
5925,148190072.98319492
2,9, 1, 9, 0,13, 0.00,60.00,Monday
213,141565571.35764703
5925,141565571.357647
2,9, 1, 9, 0,14, 0.00,60.00,Monday
213,148351628.2611114
5925,148351628.2611114
2,9, 1, 9, 0,15, 0.00,60.00,Monday
213,133851665.57607962
5925,133851665.57607962
2,9, 1, 9, 0,16, 0.00,60.00,Monday
213,153847470.3821143
5925,153847470.3821143
2,9, 1, 9, 0,17, 0.00,60.00,Monday
213,174729089.22413233
5925,174729089.2241323
2,9, 1, 9, 0,18, 0.00,60.00,Monday
213,197159896.58472142
5925,197159896.58472174
2,9, 1, 9, 0,19, 0.00,60.00,Monday
213,231478991.94956952
5925,231478991.94956985
2,9, 1, 9, 0,20, 0.00,60.00,Monday
213,209726864.9017347
5925,209726864.90173504
2,9, 1, 9, 0,21, 0.00,60.00,Monday
213,219803151.39118052
5925,219803151.39118084
2,9, 1, 9, 0,22, 0.00,60.00,Monday
213,180404658.1191231
5925,180404658.11912316
2,9, 1, 9, 0,23, 0.00,60.00,Monday
213,151163634.77456275
5925,151163634.7745627
2,9, 1, 9, 0,24, 0.00,60.00,Monday
213,114672843.91597936
5925,114672843.91597936
2,10, 1,10, 0, 1, 0.00,60.00,Tuesday
213,88688035.05224206
5925,88688035.05224203
2,10, 1,10, 0, 2, 0.00,60.00,Tuesday
213,84879945.74394661
5925,84879945.74394658
2,10, 1,10, 0, 3, 0.00,60.00,Tuesday
213,81050256.74102464
5925,81050256.74102464
2,10, 1,10, 0, 4, 0.00,60.00,Tuesday
213,73533103.40678038
5925,73533103.40678036
2,10, 1,10, 0, 5, 0.00,60.00,Tuesday
213,92319257.00788878
5925,92319257.00788873
2,10, 1,10, 0, 6, 0.00,60.00,Tuesday
213,117444062.62420753
5925,117444062.62420751
2,10, 1,10, 0, 7, 0.00,60.00,Tuesday
213,179221594.05801153
5925,179221594.05801147
2,10, 1,10, 0, 8, 0.00,60.00,Tuesday
213,183437547.10202724
5925,183437547.10202724
2,10, 1,10, 0, 9, 0.00,60.00,Tuesday
213,171446235.62419587
5925,171446235.62419587
2,10, 1,10, 0,10, 0.00,60.00,Tuesday
213,149966258.67089373
5925,149966258.67089373
2,10, 1,10, 0,11, 0.00,60.00,Tuesday
213,157630638.68002707
5925,157630638.68002707
2,10, 1,10, 0,12, 0.00,60.00,Tuesday
213,146369388.2213806
5925,146369388.22138056
2,10, 1,10, 0,13, 0.00,60.00,Tuesday
213,145143505.49604344
5925,145143505.49604344
2,10, 1,10, 0,14, 0.00,60.00,Tuesday
213,144131372.70683423
5925,144131372.70683423
2,10, 1,10, 0,15, 0.00,60.00,Tuesday
213,139715106.2248012
5925,139715106.2248012
2,10, 1,10, 0,16, 0.00,60.00,Tuesday
213,137925047.4254436
5925,137925047.42544356
2,10, 1,10, 0,17, 0.00,60.00,Tuesday
213,167648825.80007973
5925,167648825.8000797
2,10, 1,10, 0,18, 0.00,60.00,Tuesday
213,196112397.4067046
5925,196112397.40670493
2,10, 1,10, 0,19, 0.00,60.00,Tuesday
213,233255029.55506834
5925,233255029.55506867
2,10, 1,10, 0,20, 0.00,60.00,Tuesday
213,227684908.91509855
5925,227684908.91509882
2,10, 1,10, 0,21, 0.00,60.00,Tuesday
213,209397219.68435735
5925,209397219.68435767
2,10, 1,10, 0,22, 0.00,60.00,Tuesday
213,187481894.02713594
5925,187481894.02713606
2,10, 1,10, 0,23, 0.00,60.00,Tuesday
213,155676808.706426
5925,155676808.706426
2,10, 1,10, 0,24, 0.00,60.00,Tuesday
213,119094343.80816756
5925,119094343.80816756
2,11, 1,11, 0, 1, 0.00,60.00,Wednesday
213,85618179.47694772
5925,85618179.4769477
2,11, 1,11, 0, 2, 0.00,60.00,Wednesday
213,85617399.5882865
5925,85617399.58828649
2,11, 1,11, 0, 3, 0.00,60.00,Wednesday
213,77474003.26186177
5925,77474003.26186177
2,11, 1,11, 0, 4, 0.00,60.00,Wednesday
213,82717028.5970981
5925,82717028.59709808
2,11, 1,11, 0, 5, 0.00,60.00,Wednesday
213,82334559.52165134
5925,82334559.52165133
2,11, 1,11, 0, 6, 0.00,60.00,Wednesday
213,113443019.31114188
5925,113443019.31114188
2,11, 1,11, 0, 7, 0.00,60.00,Wednesday
213,182656508.83269057
5925,182656508.83269054
2,11, 1,11, 0, 8, 0.00,60.00,Wednesday
213,182718525.38343608
5925,182718525.38343614
2,11, 1,11, 0, 9, 0.00,60.00,Wednesday
213,170252181.34385917
5925,170252181.34385917
2,11, 1,11, 0,10, 0.00,60.00,Wednesday
213,158717204.6662255
5925,158717204.6662255
2,11, 1,11, 0,11, 0.00,60.00,Wednesday
213,142371836.45193717
5925,142371836.45193717
2,11, 1,11, 0,12, 0.00,60.00,Wednesday
213,135377025.57390192
5925,135377025.57390192
2,11, 1,11, 0,13, 0.00,60.00,Wednesday
213,129144041.42267117
5925,129144041.42267114
2,11, 1,11, 0,14, 0.00,60.00,Wednesday
213,118400249.14083952
5925,118400249.1408395
2,11, 1,11, 0,15, 0.00,60.00,Wednesday
213,117506567.25822702
5925,117506567.25822702
2,11, 1,11, 0,16, 0.00,60.00,Wednesday
213,125770125.91906694
5925,125770125.91906692
2,11, 1,11, 0,17, 0.00,60.00,Wednesday
213,146532718.83085427
5925,146532718.83085427
2,11, 1,11, 0,18, 0.00,60.00,Wednesday
213,197086603.587743
5925,197086603.58774334
2,11, 1,11, 0,19, 0.00,60.00,Wednesday
213,217124835.27338403
5925,217124835.2733844
2,11, 1,11, 0,20, 0.00,60.00,Wednesday
213,215332443.72685882
5925,215332443.72685912
2,11, 1,11, 0,21, 0.00,60.00,Wednesday
213,205729234.65563917
5925,205729234.65563947
2,11, 1,11, 0,22, 0.00,60.00,Wednesday
213,182756992.76664662
5925,182756992.76664662
2,11, 1,11, 0,23, 0.00,60.00,Wednesday
213,150947845.20497355
5925,150947845.20497352
2,11, 1,11, 0,24, 0.00,60.00,Wednesday
213,115357018.20338455
5925,115357018.20338452
2,12, 1,12, 0, 1, 0.00,60.00,Thursday
213,91973166.82175155
5925,91973166.82175152
2,12, 1,12, 0, 2, 0.00,60.00,Thursday
213,79781935.03231335
5925,79781935.03231333
2,12, 1,12, 0, 3, 0.00,60.00,Thursday
213,85470863.88493878
5925,85470863.88493876
2,12, 1,12, 0, 4, 0.00,60.00,Thursday
213,74390662.23021223
5925,74390662.23021221
2,12, 1,12, 0, 5, 0.00,60.00,Thursday
213,88751167.0261209
5925,88751167.02612089
2,12, 1,12, 0, 6, 0.00,60.00,Thursday
213,114710852.68904847
5925,114710852.68904845
2,12, 1,12, 0, 7, 0.00,60.00,Thursday
213,182297099.09029827
5925,182297099.09029827
2,12, 1,12, 0, 8, 0.00,60.00,Thursday
213,182846601.80207327
5925,182846601.80207327
2,12, 1,12, 0, 9, 0.00,60.00,Thursday
213,169888269.35260355
5925,169888269.35260355
2,12, 1,12, 0,10, 0.00,60.00,Thursday
213,153560931.50626987
5925,153560931.50626987
2,12, 1,12, 0,11, 0.00,60.00,Thursday
213,150575817.91219085
5925,150575817.91219085
2,12, 1,12, 0,12, 0.00,60.00,Thursday
213,133676922.19022533
5925,133676922.19022532
2,12, 1,12, 0,13, 0.00,60.00,Thursday
213,118283720.86656173
5925,118283720.86656173
2,12, 1,12, 0,14, 0.00,60.00,Thursday
213,124897312.0931629
5925,124897312.0931629
2,12, 1,12, 0,15, 0.00,60.00,Thursday
213,116416354.80187973
5925,116416354.8018797
2,12, 1,12, 0,16, 0.00,60.00,Thursday
213,122459079.7972759
5925,122459079.7972759
2,12, 1,12, 0,17, 0.00,60.00,Thursday
213,152700297.07311654
5925,152700297.0731165
2,12, 1,12, 0,18, 0.00,60.00,Thursday
213,187583865.69994804
5925,187583865.69994837
2,12, 1,12, 0,19, 0.00,60.00,Thursday
213,223960928.22723684
5925,223960928.22723714
2,12, 1,12, 0,20, 0.00,60.00,Thursday
213,218597423.18581587
5925,218597423.18581623
2,12, 1,12, 0,21, 0.00,60.00,Thursday
213,202986075.93498
5925,202986075.9349803
2,12, 1,12, 0,22, 0.00,60.00,Thursday
213,181856061.9307675
5925,181856061.9307675
2,12, 1,12, 0,23, 0.00,60.00,Thursday
213,153544913.43012285
5925,153544913.43012282
2,12, 1,12, 0,24, 0.00,60.00,Thursday
213,115286251.7785787
5925,115286251.77857867
2,13, 1,13, 0, 1, 0.00,60.00,Friday
213,88701178.26272342
5925,88701178.26272339
2,13, 1,13, 0, 2, 0.00,60.00,Friday
213,83464077.99172352
5925,83464077.99172352
2,13, 1,13, 0, 3, 0.00,60.00,Friday
213,76138518.0525217
5925,76138518.05252169
2,13, 1,13, 0, 4, 0.00,60.00,Friday
213,84209755.07559057
5925,84209755.07559055
2,13, 1,13, 0, 5, 0.00,60.00,Friday
213,82812319.94687566
5925,82812319.94687566
2,13, 1,13, 0, 6, 0.00,60.00,Friday
213,115744311.26237287
5925,115744311.26237284
2,13, 1,13, 0, 7, 0.00,60.00,Friday
213,182013615.85222057
5925,182013615.85222057
2,13, 1,13, 0, 8, 0.00,60.00,Friday
213,183519980.22629288
5925,183519980.22629288
2,13, 1,13, 0, 9, 0.00,60.00,Friday
213,171361229.04131734
5925,171361229.04131734
2,13, 1,13, 0,10, 0.00,60.00,Friday
213,158055720.19274688
5925,158055720.19274685
2,13, 1,13, 0,11, 0.00,60.00,Friday
213,142405993.72859186
5925,142405993.72859186
2,13, 1,13, 0,12, 0.00,60.00,Friday
213,134393959.02955085
5925,134393959.02955085
2,13, 1,13, 0,13, 0.00,60.00,Friday
213,128837760.29942182
5925,128837760.29942182
2,13, 1,13, 0,14, 0.00,60.00,Friday
213,121385830.51098673
5925,121385830.51098673
2,13, 1,13, 0,15, 0.00,60.00,Friday
213,113688782.98745395
5925,113688782.98745394
2,13, 1,13, 0,16, 0.00,60.00,Friday
213,124821102.47479536
5925,124821102.47479537
2,13, 1,13, 0,17, 0.00,60.00,Friday
213,153400757.89893526
5925,153400757.89893526
2,13, 1,13, 0,18, 0.00,60.00,Friday
213,190811006.41202098
5925,190811006.41202128
2,13, 1,13, 0,19, 0.00,60.00,Friday
213,221950498.39340192
5925,221950498.3934023
2,13, 1,13, 0,20, 0.00,60.00,Friday
213,210519474.37852606
5925,210519474.3785264
2,13, 1,13, 0,21, 0.00,60.00,Friday
213,211482311.8586973
5925,211482311.85869762
2,13, 1,13, 0,22, 0.00,60.00,Friday
213,180305881.65068847
5925,180305881.65068847
2,13, 1,13, 0,23, 0.00,60.00,Friday
213,153248430.6433419
5925,153248430.6433419
2,13, 1,13, 0,24, 0.00,60.00,Friday
213,116208732.81024586
5925,116208732.81024586
2,14, 1,14, 0, 1, 0.00,60.00,Saturday
213,87016865.62701315
5925,87016865.62701312
2,14, 1,14, 0, 2, 0.00,60.00,Saturday
213,87039802.68104188
5925,87039802.68104187
2,14, 1,14, 0, 3, 0.00,60.00,Saturday
213,78805916.17661852
5925,78805916.17661852
2,14, 1,14, 0, 4, 0.00,60.00,Saturday
213,75562075.87726179
5925,75562075.87726177
2,14, 1,14, 0, 5, 0.00,60.00,Saturday
213,88146632.10851867
5925,88146632.10851866
2,14, 1,14, 0, 6, 0.00,60.00,Saturday
213,115753755.73910314
5925,115753755.73910311
2,14, 1,14, 0, 7, 0.00,60.00,Saturday
213,182169818.60422373
5925,182169818.60422367
2,14, 1,14, 0, 8, 0.00,60.00,Saturday
213,181771668.85928
5925,181771668.85928
2,14, 1,14, 0, 9, 0.00,60.00,Saturday
213,168692839.60999098
5925,168692839.60999098
2,14, 1,14, 0,10, 0.00,60.00,Saturday
213,148410687.98082533
5925,148410687.98082533
2,14, 1,14, 0,11, 0.00,60.00,Saturday
213,144315564.66950372
5925,144315564.66950372
2,14, 1,14, 0,12, 0.00,60.00,Saturday
213,130928633.21881081
5925,130928633.21881078
2,14, 1,14, 0,13, 0.00,60.00,Saturday
213,125201225.66808814
5925,125201225.66808812
2,14, 1,14, 0,14, 0.00,60.00,Saturday
213,111393004.70051745
5925,111393004.70051742
2,14, 1,14, 0,15, 0.00,60.00,Saturday
213,113407334.6530937
5925,113407334.6530937
2,14, 1,14, 0,16, 0.00,60.00,Saturday
213,118934403.00154175
5925,118934403.00154173
2,14, 1,14, 0,17, 0.00,60.00,Saturday
213,147798378.62484232
5925,147798378.6248423
2,14, 1,14, 0,18, 0.00,60.00,Saturday
213,196250916.8130688
5925,196250916.8130691
2,14, 1,14, 0,19, 0.00,60.00,Saturday
213,216157965.9450195
5925,216157965.94501984
2,14, 1,14, 0,20, 0.00,60.00,Saturday
213,217469396.24982345
5925,217469396.24982378
2,14, 1,14, 0,21, 0.00,60.00,Saturday
213,204759584.67043996
5925,204759584.6704403
2,14, 1,14, 0,22, 0.00,60.00,Saturday
213,180784253.1013229
5925,180784253.1013229
2,14, 1,14, 0,23, 0.00,60.00,Saturday
213,152268894.35920832
5925,152268894.35920826
2,14, 1,14, 0,24, 0.00,60.00,Saturday
213,117176412.79595941
5925,117176412.7959594
2,15, 1,15, 0, 1, 0.00,60.00,Sunday
213,92246391.8490043
5925,92246391.84900428
2,15, 1,15, 0, 2, 0.00,60.00,Sunday
213,81785624.9328001
5925,81785624.9328001
2,15, 1,15, 0, 3, 0.00,60.00,Sunday
213,84953885.61293775
5925,84953885.61293773
2,15, 1,15, 0, 4, 0.00,60.00,Sunday
213,73882612.92480466
5925,73882612.92480461
2,15, 1,15, 0, 5, 0.00,60.00,Sunday
213,85548382.38730851
5925,85548382.3873085
2,15, 1,15, 0, 6, 0.00,60.00,Sunday
213,120134434.13949893
5925,120134434.13949892
2,15, 1,15, 0, 7, 0.00,60.00,Sunday
213,177972843.72108608
5925,177972843.72108606
2,15, 1,15, 0, 8, 0.00,60.00,Sunday
213,185157188.37159932
5925,185157188.3715993
2,15, 1,15, 0, 9, 0.00,60.00,Sunday
213,165642206.60792154
5925,165642206.60792154
2,15, 1,15, 0,10, 0.00,60.00,Sunday
213,152268237.8919015
5925,152268237.8919015
2,15, 1,15, 0,11, 0.00,60.00,Sunday
213,145701254.97779092
5925,145701254.97779092
2,15, 1,15, 0,12, 0.00,60.00,Sunday
213,129312815.29059063
5925,129312815.29059064
2,15, 1,15, 0,13, 0.00,60.00,Sunday
213,120486598.8332534
5925,120486598.8332534
2,15, 1,15, 0,14, 0.00,60.00,Sunday
213,119440006.43459198
5925,119440006.43459196
2,15, 1,15, 0,15, 0.00,60.00,Sunday
213,109489395.42316812
5925,109489395.42316808
2,15, 1,15, 0,16, 0.00,60.00,Sunday
213,120192696.67614399
5925,120192696.67614399
2,15, 1,15, 0,17, 0.00,60.00,Sunday
213,150382514.93044275
5925,150382514.93044272
2,15, 1,15, 0,18, 0.00,60.00,Sunday
213,187171757.7483397
5925,187171757.74834007