Program Version,EnergyPlus, Version 26.1.0-6f2e40d102, YMD=2026.04.15 00:33
1,5,Environment Title[],Latitude[deg],Longitude[deg],Time Zone[],Elevation[m]
2,8,Day of Simulation[],Month[],Day of Month[],DST Indicator[1=yes 0=no],Hour[],StartMinute[],EndMinute[],DayType
3,5,Cumulative Day of Simulation[],Month[],Day of Month[],DST Indicator[1=yes 0=no],DayType  ! When Daily Meters Requested
4,2,Cumulative Days of Simulation[],Month[]  ! When Monthly Meters Requested
5,1,Cumulative Days of Simulation[] ! When Run Period Meters Requested
6,1,Calendar Year of Simulation[] ! When Annual Meters Requested
213,1,Electricity:Facility [J] !Hourly
6085,1,ElectricityNet:Facility [J] !Hourly
End of Data Dictionary
1,RUNPERIOD 1,  28.11, 112.79,   8.00, 120.00
2,1, 1, 1, 0, 1, 0.00,60.00,Holiday
213,154796728.8190007
6085,154796728.8190006
2,1, 1, 1, 0, 2, 0.00,60.00,Holiday
213,147692242.65379557
6085,147692242.65379533
2,1, 1, 1, 0, 3, 0.00,60.00,Holiday
213,144529071.8546558
6085,144529071.85465577
2,1, 1, 1, 0, 4, 0.00,60.00,Holiday
213,142942498.44875875
6085,142942498.4487587
2,1, 1, 1, 0, 5, 0.00,60.00,Holiday
213,146047457.71976823
6085,146047457.71976808
2,1, 1, 1, 0, 6, 0.00,60.00,Holiday
213,164535571.26664168
6085,164535571.26664144
2,1, 1, 1, 0, 7, 0.00,60.00,Holiday
213,195310518.79094532
6085,195310518.7909451
2,1, 1, 1, 0, 8, 0.00,60.00,Holiday
213,199054249.66178608
6085,199054249.66178596
2,1, 1, 1, 0, 9, 0.00,60.00,Holiday
213,185704147.3064274
6085,185704147.30642718
2,1, 1, 1, 0,10, 0.00,60.00,Holiday
213,176549491.57347655
6085,176549491.5734763
2,1, 1, 1, 0,11, 0.00,60.00,Holiday
213,166702308.1468016
6085,166702308.14680138
2,1, 1, 1, 0,12, 0.00,60.00,Holiday
213,169627988.21515083
6085,169627988.2151506
2,1, 1, 1, 0,13, 0.00,60.00,Holiday
213,168345711.28139764
6085,168345711.28139743
2,1, 1, 1, 0,14, 0.00,60.00,Holiday
213,162568442.3701824
6085,162568442.3701822
2,1, 1, 1, 0,15, 0.00,60.00,Holiday
213,162100935.1912643
6085,162100935.1912641
2,1, 1, 1, 0,16, 0.00,60.00,Holiday
213,170445373.16676024
6085,170445373.16676006
2,1, 1, 1, 0,17, 0.00,60.00,Holiday
213,206745833.80539724
6085,206745833.80539706
2,1, 1, 1, 0,18, 0.00,60.00,Holiday
213,269948984.86419624
6085,269948984.8641968
2,1, 1, 1, 0,19, 0.00,60.00,Holiday
213,290978322.93522346
6085,290978322.935224
2,1, 1, 1, 0,20, 0.00,60.00,Holiday
213,276478563.2197776
6085,276478563.21977806
2,1, 1, 1, 0,21, 0.00,60.00,Holiday
213,269337289.52946717
6085,269337289.5294677
2,1, 1, 1, 0,22, 0.00,60.00,Holiday
213,247827079.82252267
6085,247827079.82252282
2,1, 1, 1, 0,23, 0.00,60.00,Holiday
213,208904878.55250397
6085,208904878.55250376
2,1, 1, 1, 0,24, 0.00,60.00,Holiday
213,178254089.2909066
6085,178254089.29090637
2,2, 1, 2, 0, 1, 0.00,60.00,Monday
213,155148542.3781926
6085,155148542.3781925
2,2, 1, 2, 0, 2, 0.00,60.00,Monday
213,148283429.26026234
6085,148283429.26026207
2,2, 1, 2, 0, 3, 0.00,60.00,Monday
213,145281327.9868066
6085,145281327.9868065
2,2, 1, 2, 0, 4, 0.00,60.00,Monday
213,143816245.85653478
6085,143816245.85653475
2,2, 1, 2, 0, 5, 0.00,60.00,Monday
213,147004053.21404532
6085,147004053.21404514
2,2, 1, 2, 0, 6, 0.00,60.00,Monday
213,165109706.15570614
6085,165109706.15570596
2,2, 1, 2, 0, 7, 0.00,60.00,Monday
213,196021239.7617427
6085,196021239.7617425
2,2, 1, 2, 0, 8, 0.00,60.00,Monday
213,200115390.73322064
6085,200115390.73322046
2,2, 1, 2, 0, 9, 0.00,60.00,Monday
213,189998339.15811104
6085,189998339.1581108
2,2, 1, 2, 0,10, 0.00,60.00,Monday
213,180947998.1047091
6085,180947998.10470888
2,2, 1, 2, 0,11, 0.00,60.00,Monday
213,171841001.8489441
6085,171841001.8489439
2,2, 1, 2, 0,12, 0.00,60.00,Monday
213,173529817.7613361
6085,173529817.76133585
2,2, 1, 2, 0,13, 0.00,60.00,Monday
213,170188512.78531933
6085,170188512.78531915
2,2, 1, 2, 0,14, 0.00,60.00,Monday
213,166930088.47396258
6085,166930088.47396237
2,2, 1, 2, 0,15, 0.00,60.00,Monday
213,164182713.0567326
6085,164182713.05673242
2,2, 1, 2, 0,16, 0.00,60.00,Monday
213,172598670.7948462
6085,172598670.79484597
2,2, 1, 2, 0,17, 0.00,60.00,Monday
213,210558444.17832598
6085,210558444.17832583
2,2, 1, 2, 0,18, 0.00,60.00,Monday
213,265184593.00618553
6085,265184593.006186
2,2, 1, 2, 0,19, 0.00,60.00,Monday
213,288668110.23823637
6085,288668110.2382369
2,2, 1, 2, 0,20, 0.00,60.00,Monday
213,274594790.72770286
6085,274594790.7277033
2,2, 1, 2, 0,21, 0.00,60.00,Monday
213,268033460.15619463
6085,268033460.1561951
2,2, 1, 2, 0,22, 0.00,60.00,Monday
213,247429326.19177258
6085,247429326.19177273
2,2, 1, 2, 0,23, 0.00,60.00,Monday
213,210363344.07068926
6085,210363344.07068908
2,2, 1, 2, 0,24, 0.00,60.00,Monday
213,179374954.3632301
6085,179374954.3632299
2,3, 1, 3, 0, 1, 0.00,60.00,Tuesday
213,156381480.12911165
6085,156381480.1291116
2,3, 1, 3, 0, 2, 0.00,60.00,Tuesday
213,149535785.29074228
6085,149535785.2907421
2,3, 1, 3, 0, 3, 0.00,60.00,Tuesday
213,146387701.47822842
6085,146387701.4782283
2,3, 1, 3, 0, 4, 0.00,60.00,Tuesday
213,144894028.78965798
6085,144894028.78965795
2,3, 1, 3, 0, 5, 0.00,60.00,Tuesday
213,148082679.11998624
6085,148082679.11998603
2,3, 1, 3, 0, 6, 0.00,60.00,Tuesday
213,167150237.72263792
6085,167150237.72263774
2,3, 1, 3, 0, 7, 0.00,60.00,Tuesday
213,197595576.8305992
6085,197595576.83059895
2,3, 1, 3, 0, 8, 0.00,60.00,Tuesday
213,200937029.71827108
6085,200937029.7182709
2,3, 1, 3, 0, 9, 0.00,60.00,Tuesday
213,190876376.51366186
6085,190876376.51366162
2,3, 1, 3, 0,10, 0.00,60.00,Tuesday
213,182005026.48712027
6085,182005026.48712006
2,3, 1, 3, 0,11, 0.00,60.00,Tuesday
213,172977150.59302396
6085,172977150.59302372
2,3, 1, 3, 0,12, 0.00,60.00,Tuesday
213,174720284.67924628
6085,174720284.67924607
2,3, 1, 3, 0,13, 0.00,60.00,Tuesday
213,171237190.30827492
6085,171237190.3082747
2,3, 1, 3, 0,14, 0.00,60.00,Tuesday
213,167997966.89997402
6085,167997966.89997384
2,3, 1, 3, 0,15, 0.00,60.00,Tuesday
213,165305143.00007161
6085,165305143.0000714
2,3, 1, 3, 0,16, 0.00,60.00,Tuesday
213,174095056.57856908
6085,174095056.57856888
2,3, 1, 3, 0,17, 0.00,60.00,Tuesday
213,211899995.84490854
6085,211899995.84490836
2,3, 1, 3, 0,18, 0.00,60.00,Tuesday
213,266199916.57003045
6085,266199916.57003093
2,3, 1, 3, 0,19, 0.00,60.00,Tuesday
213,289828109.9398845
6085,289828109.939885
2,3, 1, 3, 0,20, 0.00,60.00,Tuesday
213,275576400.58068603
6085,275576400.5806865
2,3, 1, 3, 0,21, 0.00,60.00,Tuesday
213,268747212.7006224
6085,268747212.70062286
2,3, 1, 3, 0,22, 0.00,60.00,Tuesday
213,247961886.93956098
6085,247961886.93956116
2,3, 1, 3, 0,23, 0.00,60.00,Tuesday
213,210644097.4888072
6085,210644097.48880702
2,3, 1, 3, 0,24, 0.00,60.00,Tuesday
213,178936001.6700529
6085,178936001.67005265
2,4, 1, 4, 0, 1, 0.00,60.00,Wednesday
213,156025228.95653373
6085,156025228.95653367
2,4, 1, 4, 0, 2, 0.00,60.00,Wednesday
213,149748844.82140374
6085,149748844.8214035
2,4, 1, 4, 0, 3, 0.00,60.00,Wednesday
213,147365942.258644
6085,147365942.25864395
2,4, 1, 4, 0, 4, 0.00,60.00,Wednesday
213,145927737.6231557
6085,145927737.62315565
2,4, 1, 4, 0, 5, 0.00,60.00,Wednesday
213,148584931.92722487
6085,148584931.9272247
2,4, 1, 4, 0, 6, 0.00,60.00,Wednesday
213,167110217.47594076
6085,167110217.47594056
2,4, 1, 4, 0, 7, 0.00,60.00,Wednesday
213,197172717.57628074
6085,197172717.57628053
2,4, 1, 4, 0, 8, 0.00,60.00,Wednesday
213,201049057.5308926
6085,201049057.53089243
2,4, 1, 4, 0, 9, 0.00,60.00,Wednesday
213,191429033.51455143
6085,191429033.51455122
2,4, 1, 4, 0,10, 0.00,60.00,Wednesday
213,182008576.47381127
6085,182008576.47381106
2,4, 1, 4, 0,11, 0.00,60.00,Wednesday
213,171400084.47275943
6085,171400084.47275925
2,4, 1, 4, 0,12, 0.00,60.00,Wednesday
213,171398924.93624955
6085,171398924.93624932
2,4, 1, 4, 0,13, 0.00,60.00,Wednesday
213,167157518.6097833
6085,167157518.6097831
2,4, 1, 4, 0,14, 0.00,60.00,Wednesday
213,163634628.0919112
6085,163634628.09191102
2,4, 1, 4, 0,15, 0.00,60.00,Wednesday
213,161780942.25042123
6085,161780942.25042105
2,4, 1, 4, 0,16, 0.00,60.00,Wednesday
213,171128543.12061346
6085,171128543.12061322
2,4, 1, 4, 0,17, 0.00,60.00,Wednesday
213,208432014.44920063
6085,208432014.44920048
2,4, 1, 4, 0,18, 0.00,60.00,Wednesday
213,264084922.67547718
6085,264084922.67547765
2,4, 1, 4, 0,19, 0.00,60.00,Wednesday
213,288304395.0773012
6085,288304395.0773017
2,4, 1, 4, 0,20, 0.00,60.00,Wednesday
213,273767589.6769596
6085,273767589.6769601
2,4, 1, 4, 0,21, 0.00,60.00,Wednesday
213,267321660.65158397
6085,267321660.65158442
2,4, 1, 4, 0,22, 0.00,60.00,Wednesday
213,246676071.22005588
6085,246676071.220056
2,4, 1, 4, 0,23, 0.00,60.00,Wednesday
213,209230691.8264744
6085,209230691.8264742
2,4, 1, 4, 0,24, 0.00,60.00,Wednesday
213,178306694.1233679
6085,178306694.1233677
2,5, 1, 5, 0, 1, 0.00,60.00,Thursday
213,155413633.81189305
6085,155413633.811893
2,5, 1, 5, 0, 2, 0.00,60.00,Thursday
213,148595346.12769002
6085,148595346.12768978
2,5, 1, 5, 0, 3, 0.00,60.00,Thursday
213,145897980.30414543
6085,145897980.30414537
2,5, 1, 5, 0, 4, 0.00,60.00,Thursday
213,144340562.52450722
6085,144340562.5245072
2,5, 1, 5, 0, 5, 0.00,60.00,Thursday
213,147033934.95109892
6085,147033934.95109877
2,5, 1, 5, 0, 6, 0.00,60.00,Thursday
213,166136256.64165416
6085,166136256.64165398
2,5, 1, 5, 0, 7, 0.00,60.00,Thursday
213,196971008.6510035
6085,196971008.6510033
2,5, 1, 5, 0, 8, 0.00,60.00,Thursday
213,200558133.25586322
6085,200558133.25586304
2,5, 1, 5, 0, 9, 0.00,60.00,Thursday
213,188980474.51583004
6085,188980474.5158298
2,5, 1, 5, 0,10, 0.00,60.00,Thursday
213,177498308.47629705
6085,177498308.47629684
2,5, 1, 5, 0,11, 0.00,60.00,Thursday
213,169908935.8290335
6085,169908935.82903332
2,5, 1, 5, 0,12, 0.00,60.00,Thursday
213,174091953.92935598
6085,174091953.92935577
2,5, 1, 5, 0,13, 0.00,60.00,Thursday
213,172647014.36375323
6085,172647014.36375305
2,5, 1, 5, 0,14, 0.00,60.00,Thursday
213,172296179.6974328
6085,172296179.69743258
2,5, 1, 5, 0,15, 0.00,60.00,Thursday
213,177748682.16806945
6085,177748682.16806927
2,5, 1, 5, 0,16, 0.00,60.00,Thursday
213,194595253.4820123
6085,194595253.48201206
2,5, 1, 5, 0,17, 0.00,60.00,Thursday
213,232389326.53600788
6085,232389326.53600776
2,5, 1, 5, 0,18, 0.00,60.00,Thursday
213,279139898.89733046
6085,279139898.89733094
2,5, 1, 5, 0,19, 0.00,60.00,Thursday
213,303970145.1577481
6085,303970145.1577485
2,5, 1, 5, 0,20, 0.00,60.00,Thursday
213,286610908.67327356
6085,286610908.67327404
2,5, 1, 5, 0,21, 0.00,60.00,Thursday
213,277805671.19839364
6085,277805671.1983941
2,5, 1, 5, 0,22, 0.00,60.00,Thursday
213,254896978.6689129
6085,254896978.66891307
2,5, 1, 5, 0,23, 0.00,60.00,Thursday
213,213532168.27056718
6085,213532168.27056706
2,5, 1, 5, 0,24, 0.00,60.00,Thursday
213,178054246.57628983
6085,178054246.57628962
2,6, 1, 6, 0, 1, 0.00,60.00,Friday
213,151854957.46461016
6085,151854957.46461007
2,6, 1, 6, 0, 2, 0.00,60.00,Friday
213,144440973.08331233
6085,144440973.0833121
2,6, 1, 6, 0, 3, 0.00,60.00,Friday
213,140768519.1886016
6085,140768519.18860158
2,6, 1, 6, 0, 4, 0.00,60.00,Friday
213,139620430.3281448
6085,139620430.32814476
2,6, 1, 6, 0, 5, 0.00,60.00,Friday
213,143234305.91424376
6085,143234305.9142436
2,6, 1, 6, 0, 6, 0.00,60.00,Friday
213,162423938.8278881
6085,162423938.8278879
2,6, 1, 6, 0, 7, 0.00,60.00,Friday
213,196069921.37158507
6085,196069921.37158486
2,6, 1, 6, 0, 8, 0.00,60.00,Friday
213,202583015.76798
6085,202583015.76797974
2,6, 1, 6, 0, 9, 0.00,60.00,Friday
213,191556634.4385363
6085,191556634.43853605
2,6, 1, 6, 0,10, 0.00,60.00,Friday
213,197978502.48267305
6085,197978502.48267284
2,6, 1, 6, 0,11, 0.00,60.00,Friday
213,217287003.30941784
6085,217287003.30941767
2,6, 1, 6, 0,12, 0.00,60.00,Friday
213,241817564.4714401
6085,241817564.4714399
2,6, 1, 6, 0,13, 0.00,60.00,Friday
213,249899201.07561702
6085,249899201.07561693
2,6, 1, 6, 0,14, 0.00,60.00,Friday
213,255851637.75035882
6085,255851637.7503587
2,6, 1, 6, 0,15, 0.00,60.00,Friday
213,260085453.278613
6085,260085453.2786129
2,6, 1, 6, 0,16, 0.00,60.00,Friday
213,269805237.1229334
6085,269805237.1229332
2,6, 1, 6, 0,17, 0.00,60.00,Friday
213,298450108.1510427
6085,298450108.1510429
2,6, 1, 6, 0,18, 0.00,60.00,Friday
213,327554890.7300345
6085,327554890.73003495
2,6, 1, 6, 0,19, 0.00,60.00,Friday
213,341618278.5351512
6085,341618278.53515166
2,6, 1, 6, 0,20, 0.00,60.00,Friday
213,317622590.9804557
6085,317622590.9804561
2,6, 1, 6, 0,21, 0.00,60.00,Friday
213,304880856.34737504
6085,304880856.34737545
2,6, 1, 6, 0,22, 0.00,60.00,Friday
213,277096189.67991877
6085,277096189.67991894
2,6, 1, 6, 0,23, 0.00,60.00,Friday
213,229980980.36619776
6085,229980980.3661976
2,6, 1, 6, 0,24, 0.00,60.00,Friday
213,189246093.671476
6085,189246093.67147577
2,7, 1, 7, 0, 1, 0.00,60.00,Saturday
213,157230397.1322036
6085,157230397.13220352
2,7, 1, 7, 0, 2, 0.00,60.00,Saturday
213,148532592.69501764
6085,148532592.6950174
2,7, 1, 7, 0, 3, 0.00,60.00,Saturday
213,145130811.40132186
6085,145130811.40132177
2,7, 1, 7, 0, 4, 0.00,60.00,Saturday
213,143584111.14699784
6085,143584111.1469978
2,7, 1, 7, 0, 5, 0.00,60.00,Saturday
213,147287366.74882478
6085,147287366.74882454
2,7, 1, 7, 0, 6, 0.00,60.00,Saturday
213,167028304.52169412
6085,167028304.52169394
2,7, 1, 7, 0, 7, 0.00,60.00,Saturday
213,200423614.7219398
6085,200423614.72193956
2,7, 1, 7, 0, 8, 0.00,60.00,Saturday
213,207355353.37086836
6085,207355353.37086815
2,7, 1, 7, 0, 9, 0.00,60.00,Saturday
213,200065912.13948923
6085,200065912.139489
2,7, 1, 7, 0,10, 0.00,60.00,Saturday
213,202634628.84665346
6085,202634628.84665325
2,7, 1, 7, 0,11, 0.00,60.00,Saturday
213,209521418.81656408
6085,209521418.81656396
2,7, 1, 7, 0,12, 0.00,60.00,Saturday
213,226194233.07143116
6085,226194233.07143092
2,7, 1, 7, 0,13, 0.00,60.00,Saturday
213,235076554.53816077
6085,235076554.53816056
2,7, 1, 7, 0,14, 0.00,60.00,Saturday
213,236970434.6625833
6085,236970434.66258317
2,7, 1, 7, 0,15, 0.00,60.00,Saturday
213,241358232.77642623
6085,241358232.77642608
2,7, 1, 7, 0,16, 0.00,60.00,Saturday
213,249129693.1516611
6085,249129693.15166095
2,7, 1, 7, 0,17, 0.00,60.00,Saturday
213,287366032.8819873
6085,287366032.88198745
2,7, 1, 7, 0,18, 0.00,60.00,Saturday
213,328238046.1255371
6085,328238046.12553763
2,7, 1, 7, 0,19, 0.00,60.00,Saturday
213,341250346.6170294
6085,341250346.6170299
2,7, 1, 7, 0,20, 0.00,60.00,Saturday
213,319041740.55442816
6085,319041740.55442864
2,7, 1, 7, 0,21, 0.00,60.00,Saturday
213,306550111.717402
6085,306550111.71740246
2,7, 1, 7, 0,22, 0.00,60.00,Saturday
213,279846119.44244885
6085,279846119.44244903
2,7, 1, 7, 0,23, 0.00,60.00,Saturday
213,232550855.86032075
6085,232550855.8603205
2,7, 1, 7, 0,24, 0.00,60.00,Saturday
213,191491763.75840926
6085,191491763.75840902
2,8, 1, 8, 0, 1, 0.00,60.00,Sunday
213,159767465.1089496
6085,159767465.10894954
2,8, 1, 8, 0, 2, 0.00,60.00,Sunday
213,149665913.7274675
6085,149665913.7274673
2,8, 1, 8, 0, 3, 0.00,60.00,Sunday
213,145124654.05479535
6085,145124654.05479532
2,8, 1, 8, 0, 4, 0.00,60.00,Sunday
213,143437750.8893234
6085,143437750.8893234
2,8, 1, 8, 0, 5, 0.00,60.00,Sunday
213,146779067.71322128
6085,146779067.71322107
2,8, 1, 8, 0, 6, 0.00,60.00,Sunday
213,166452341.55945164
6085,166452341.55945143
2,8, 1, 8, 0, 7, 0.00,60.00,Sunday
213,201413034.3077244
6085,201413034.30772424
2,8, 1, 8, 0, 8, 0.00,60.00,Sunday
213,209660324.29438788
6085,209660324.29438764
2,8, 1, 8, 0, 9, 0.00,60.00,Sunday
213,205344563.0766406
6085,205344563.07664043
2,8, 1, 8, 0,10, 0.00,60.00,Sunday
213,218078228.65239686
6085,218078228.65239674
2,8, 1, 8, 0,11, 0.00,60.00,Sunday
213,238249879.5506719
6085,238249879.55067176
2,8, 1, 8, 0,12, 0.00,60.00,Sunday
213,260246891.80934417
6085,260246891.80934405
2,8, 1, 8, 0,13, 0.00,60.00,Sunday
213,269120162.545432
6085,269120162.5454318
2,8, 1, 8, 0,14, 0.00,60.00,Sunday
213,272276352.93213755
6085,272276352.9321374
2,8, 1, 8, 0,15, 0.00,60.00,Sunday
213,277860534.0765808
6085,277860534.07658064
2,8, 1, 8, 0,16, 0.00,60.00,Sunday
213,280420383.91925496
6085,280420383.91925484
2,8, 1, 8, 0,17, 0.00,60.00,Sunday
213,312853601.57371056
6085,312853601.5737107
2,8, 1, 8, 0,18, 0.00,60.00,Sunday
213,349433840.2887392
6085,349433840.28873974
2,8, 1, 8, 0,19, 0.00,60.00,Sunday
213,357736978.78599906
6085,357736978.78599954
2,8, 1, 8, 0,20, 0.00,60.00,Sunday
213,333161241.5887012
6085,333161241.5887016
2,8, 1, 8, 0,21, 0.00,60.00,Sunday
213,318060015.82616293
6085,318060015.82616335
2,8, 1, 8, 0,22, 0.00,60.00,Sunday
213,289581574.4989605
6085,289581574.4989607
2,8, 1, 8, 0,23, 0.00,60.00,Sunday
213,241489372.91304868
6085,241489372.9130485
2,8, 1, 8, 0,24, 0.00,60.00,Sunday
213,198410223.90659562
6085,198410223.9065954
2,9, 1, 9, 0, 1, 0.00,60.00,Monday
213,165390133.16761652
6085,165390133.16761643
2,9, 1, 9, 0, 2, 0.00,60.00,Monday
213,153572132.64409
6085,153572132.6440898
2,9, 1, 9, 0, 3, 0.00,60.00,Monday
213,148235512.21631432
6085,148235512.2163142
2,9, 1, 9, 0, 4, 0.00,60.00,Monday
213,145864123.79066223
6085,145864123.79066217
2,9, 1, 9, 0, 5, 0.00,60.00,Monday
213,148665156.11426145
6085,148665156.1142612
2,9, 1, 9, 0, 6, 0.00,60.00,Monday
213,168272682.30986533
6085,168272682.30986518
2,9, 1, 9, 0, 7, 0.00,60.00,Monday
213,203616389.31603333
6085,203616389.31603312
2,9, 1, 9, 0, 8, 0.00,60.00,Monday
213,211957167.8989509
6085,211957167.8989507
2,9, 1, 9, 0, 9, 0.00,60.00,Monday
213,205544244.49591827
6085,205544244.4959181
2,9, 1, 9, 0,10, 0.00,60.00,Monday
213,220246084.94647533
6085,220246084.94647515
2,9, 1, 9, 0,11, 0.00,60.00,Monday
213,241756798.5046686
6085,241756798.50466847
2,9, 1, 9, 0,12, 0.00,60.00,Monday
213,271303806.9818848
6085,271303806.9818846
2,9, 1, 9, 0,13, 0.00,60.00,Monday
213,285621889.33412665
6085,285621889.3341265
2,9, 1, 9, 0,14, 0.00,60.00,Monday
213,203911031.04973674
6085,203911031.04973662
2,9, 1, 9, 0,15, 0.00,60.00,Monday
213,148943284.0050893
6085,148943284.00508913
2,9, 1, 9, 0,16, 0.00,60.00,Monday
213,168164658.40873802
6085,168164658.4087378
2,9, 1, 9, 0,17, 0.00,60.00,Monday
213,207411433.13750494
6085,207411433.13750476
2,9, 1, 9, 0,18, 0.00,60.00,Monday
213,251759367.59837508
6085,251759367.59837556
2,9, 1, 9, 0,19, 0.00,60.00,Monday
213,314806249.4305564
6085,314806249.4305569
2,9, 1, 9, 0,20, 0.00,60.00,Monday
213,348535516.4294342
6085,348535516.4294348
2,9, 1, 9, 0,21, 0.00,60.00,Monday
213,333229867.2389313
6085,333229867.2389318
2,9, 1, 9, 0,22, 0.00,60.00,Monday
213,301507450.82914317
6085,301507450.82914335
2,9, 1, 9, 0,23, 0.00,60.00,Monday
213,251372816.34800613
6085,251372816.34800595
2,9, 1, 9, 0,24, 0.00,60.00,Monday
213,204344086.49937817
6085,204344086.499378
2,10, 1,10, 0, 1, 0.00,60.00,Tuesday
213,170256263.79757947
6085,170256263.79757944
2,10, 1,10, 0, 2, 0.00,60.00,Tuesday
213,160171896.3804729
6085,160171896.38047272
2,10, 1,10, 0, 3, 0.00,60.00,Tuesday
213,154312517.40234724
6085,154312517.40234703
2,10, 1,10, 0, 4, 0.00,60.00,Tuesday
213,150773961.83898905
6085,150773961.83898896
2,10, 1,10, 0, 5, 0.00,60.00,Tuesday
213,152688468.5140215
6085,152688468.51402128
2,10, 1,10, 0, 6, 0.00,60.00,Tuesday
213,171763024.685055
6085,171763024.6850548
2,10, 1,10, 0, 7, 0.00,60.00,Tuesday
213,206578830.6679675
6085,206578830.66796732
2,10, 1,10, 0, 8, 0.00,60.00,Tuesday
213,214519152.61522838
6085,214519152.61522818
2,10, 1,10, 0, 9, 0.00,60.00,Tuesday
213,207597189.05603486
6085,207597189.05603468
2,10, 1,10, 0,10, 0.00,60.00,Tuesday
213,221700405.2823071
6085,221700405.28230685
2,10, 1,10, 0,11, 0.00,60.00,Tuesday
213,247471292.77153745
6085,247471292.7715373
2,10, 1,10, 0,12, 0.00,60.00,Tuesday
213,277167850.811794
6085,277167850.81179374
2,10, 1,10, 0,13, 0.00,60.00,Tuesday
213,287257705.4981508
6085,287257705.4981506
2,10, 1,10, 0,14, 0.00,60.00,Tuesday
213,158608065.0366104
6085,158608065.03661022
2,10, 1,10, 0,15, 0.00,60.00,Tuesday
213,148943284.0050893
6085,148943284.00508913
2,10, 1,10, 0,16, 0.00,60.00,Tuesday
213,219431362.87535635
6085,219431362.87535614
2,10, 1,10, 0,17, 0.00,60.00,Tuesday
213,196153021.05985564
6085,196153021.0598554
2,10, 1,10, 0,18, 0.00,60.00,Tuesday
213,251759367.59837508
6085,251759367.59837556
2,10, 1,10, 0,19, 0.00,60.00,Tuesday
213,276653459.10599756
6085,276653459.105998
2,10, 1,10, 0,20, 0.00,60.00,Tuesday
213,262285742.91518643
6085,262285742.91518682
2,10, 1,10, 0,21, 0.00,60.00,Tuesday
213,313458129.468399
6085,313458129.46839947
2,10, 1,10, 0,22, 0.00,60.00,Tuesday
213,319379578.74619305
6085,319379578.7461931
2,10, 1,10, 0,23, 0.00,60.00,Tuesday
213,266755005.2526165
6085,266755005.25261635
2,10, 1,10, 0,24, 0.00,60.00,Tuesday
213,222272979.13342687
6085,222272979.13342667
2,11, 1,11, 0, 1, 0.00,60.00,Wednesday
213,186723509.84464356
6085,186723509.84464353
2,11, 1,11, 0, 2, 0.00,60.00,Wednesday
213,174620358.69342104
6085,174620358.69342086
2,11, 1,11, 0, 3, 0.00,60.00,Wednesday
213,164874718.9468504
6085,164874718.94685015
2,11, 1,11, 0, 4, 0.00,60.00,Wednesday
213,160376342.927162
6085,160376342.92716175
2,11, 1,11, 0, 5, 0.00,60.00,Wednesday
213,164591308.0160128
6085,164591308.01601264
2,11, 1,11, 0, 6, 0.00,60.00,Wednesday
213,181831178.88649264
6085,181831178.8864924
2,11, 1,11, 0, 7, 0.00,60.00,Wednesday
213,221440104.83099362
6085,221440104.83099344
2,11, 1,11, 0, 8, 0.00,60.00,Wednesday
213,234077115.9738027
6085,234077115.97380254
2,11, 1,11, 0, 9, 0.00,60.00,Wednesday
213,210927802.38361132
6085,210927802.3836111
2,11, 1,11, 0,10, 0.00,60.00,Wednesday
213,202201654.30544543
6085,202201654.30544522
2,11, 1,11, 0,11, 0.00,60.00,Wednesday
213,198877982.5674974
6085,198877982.56749722
2,11, 1,11, 0,12, 0.00,60.00,Wednesday
213,196521672.33560392
6085,196521672.33560374
2,11, 1,11, 0,13, 0.00,60.00,Wednesday
213,194098281.8961562
6085,194098281.896156
2,11, 1,11, 0,14, 0.00,60.00,Wednesday
213,195285022.1107035
6085,195285022.11070335
2,11, 1,11, 0,15, 0.00,60.00,Wednesday
213,183638316.14378336
6085,183638316.1437832
2,11, 1,11, 0,16, 0.00,60.00,Wednesday
213,188135206.02742532
6085,188135206.0274251
2,11, 1,11, 0,17, 0.00,60.00,Wednesday
213,230457498.40892538
6085,230457498.40892524
2,11, 1,11, 0,18, 0.00,60.00,Wednesday
213,291847014.84296685
6085,291847014.84296733
2,11, 1,11, 0,19, 0.00,60.00,Wednesday
213,324374959.5951323
6085,324374959.5951328
2,11, 1,11, 0,20, 0.00,60.00,Wednesday
213,307936801.0939589
6085,307936801.0939594
2,11, 1,11, 0,21, 0.00,60.00,Wednesday
213,299105180.5033275
6085,299105180.50332797
2,11, 1,11, 0,22, 0.00,60.00,Wednesday
213,274985102.43389523
6085,274985102.43389535
2,11, 1,11, 0,23, 0.00,60.00,Wednesday
213,228982776.65821522
6085,228982776.65821502
2,11, 1,11, 0,24, 0.00,60.00,Wednesday
213,187543532.32507804
6085,187543532.32507774
2,12, 1,12, 0, 1, 0.00,60.00,Thursday
213,156611681.20340133
6085,156611681.20340127
2,12, 1,12, 0, 2, 0.00,60.00,Thursday
213,148024055.30894008
6085,148024055.30893987
2,12, 1,12, 0, 3, 0.00,60.00,Thursday
213,144337795.88395742
6085,144337795.88395736
2,12, 1,12, 0, 4, 0.00,60.00,Thursday
213,142446726.59935212
6085,142446726.59935212
2,12, 1,12, 0, 5, 0.00,60.00,Thursday
213,145710538.59742543
6085,145710538.59742522
2,12, 1,12, 0, 6, 0.00,60.00,Thursday
213,165091987.79376972
6085,165091987.7937695
2,12, 1,12, 0, 7, 0.00,60.00,Thursday
213,200468756.2216094
6085,200468756.22160923
2,12, 1,12, 0, 8, 0.00,60.00,Thursday
213,209360531.3426284
6085,209360531.3426282
2,12, 1,12, 0, 9, 0.00,60.00,Thursday
213,192378170.23014525
6085,192378170.23014498
2,12, 1,12, 0,10, 0.00,60.00,Thursday
213,183261120.64436942
6085,183261120.64436918
2,12, 1,12, 0,11, 0.00,60.00,Thursday
213,179751770.45195937
6085,179751770.45195916
2,12, 1,12, 0,12, 0.00,60.00,Thursday
213,181327528.83126295
6085,181327528.8312627
2,12, 1,12, 0,13, 0.00,60.00,Thursday
213,179743123.63704032
6085,179743123.63704017
2,12, 1,12, 0,14, 0.00,60.00,Thursday
213,179930909.43956864
6085,179930909.43956843
2,12, 1,12, 0,15, 0.00,60.00,Thursday
213,171015050.96638072
6085,171015050.96638054
2,12, 1,12, 0,16, 0.00,60.00,Thursday
213,178124009.05413488
6085,178124009.0541347
2,12, 1,12, 0,17, 0.00,60.00,Thursday
213,219207311.69643545
6085,219207311.69643524
2,12, 1,12, 0,18, 0.00,60.00,Thursday
213,276694857.9265304
6085,276694857.92653096
2,12, 1,12, 0,19, 0.00,60.00,Thursday
213,310628033.41821486
6085,310628033.41821533
2,12, 1,12, 0,20, 0.00,60.00,Thursday
213,297771857.301431
6085,297771857.30143154
2,12, 1,12, 0,21, 0.00,60.00,Thursday
213,285612068.5945484
6085,285612068.5945489
2,12, 1,12, 0,22, 0.00,60.00,Thursday
213,262456114.96231773
6085,262456114.9623179
2,12, 1,12, 0,23, 0.00,60.00,Thursday
213,221339121.65873268
6085,221339121.65873253
2,12, 1,12, 0,24, 0.00,60.00,Thursday
213,182223842.18580192
6085,182223842.1858017
2,13, 1,13, 0, 1, 0.00,60.00,Friday
213,154493481.18191016
6085,154493481.18191013
2,13, 1,13, 0, 2, 0.00,60.00,Friday
213,147487209.4061254
6085,147487209.40612522
2,13, 1,13, 0, 3, 0.00,60.00,Friday
213,144757447.90865603
6085,144757447.908656
2,13, 1,13, 0, 4, 0.00,60.00,Friday
213,143600313.45645502
6085,143600313.45645496
2,13, 1,13, 0, 5, 0.00,60.00,Friday
213,146317409.59522617
6085,146317409.595226
2,13, 1,13, 0, 6, 0.00,60.00,Friday
213,165440866.75113824
6085,165440866.75113803
2,13, 1,13, 0, 7, 0.00,60.00,Friday
213,199446348.86975372
6085,199446348.8697535
2,13, 1,13, 0, 8, 0.00,60.00,Friday
213,206511907.23890948
6085,206511907.2389093
2,13, 1,13, 0, 9, 0.00,60.00,Friday
213,191372100.06779808
6085,191372100.06779787
2,13, 1,13, 0,10, 0.00,60.00,Friday
213,182115436.394545
6085,182115436.39454475
2,13, 1,13, 0,11, 0.00,60.00,Friday
213,173658755.03826377
6085,173658755.03826356
2,13, 1,13, 0,12, 0.00,60.00,Friday
213,175377029.13658786
6085,175377029.13658768
2,13, 1,13, 0,13, 0.00,60.00,Friday
213,171940657.18685153
6085,171940657.18685132
2,13, 1,13, 0,14, 0.00,60.00,Friday
213,167710328.1805997
6085,167710328.18059948
2,13, 1,13, 0,15, 0.00,60.00,Friday
213,163632280.9235064
6085,163632280.92350623
2,13, 1,13, 0,16, 0.00,60.00,Friday
213,172670961.12489533
6085,172670961.1248951
2,13, 1,13, 0,17, 0.00,60.00,Friday
213,213264669.37229168
6085,213264669.3722915
2,13, 1,13, 0,18, 0.00,60.00,Friday
213,272916184.26329786
6085,272916184.2632984
2,13, 1,13, 0,19, 0.00,60.00,Friday
213,305100685.6853224
6085,305100685.6853228
2,13, 1,13, 0,20, 0.00,60.00,Friday
213,289812141.93676424
6085,289812141.9367647
2,13, 1,13, 0,21, 0.00,60.00,Friday
213,279379509.6020207
6085,279379509.60202116
2,13, 1,13, 0,22, 0.00,60.00,Friday
213,256918191.25738648
6085,256918191.25738662
2,13, 1,13, 0,23, 0.00,60.00,Friday
213,216747470.8588877
6085,216747470.85888755
2,13, 1,13, 0,24, 0.00,60.00,Friday
213,181247426.89171395
6085,181247426.89171374
2,14, 1,14, 0, 1, 0.00,60.00,Saturday
213,153984923.33208972
6085,153984923.33208966
2,14, 1,14, 0, 2, 0.00,60.00,Saturday
213,148141636.42680907
6085,148141636.4268089
2,14, 1,14, 0, 3, 0.00,60.00,Saturday
213,145466638.25452504
6085,145466638.254525
2,14, 1,14, 0, 4, 0.00,60.00,Saturday
213,144073698.44667673
6085,144073698.4466767
2,14, 1,14, 0, 5, 0.00,60.00,Saturday
213,146997181.56132525
6085,146997181.56132507
2,14, 1,14, 0, 6, 0.00,60.00,Saturday
213,165892691.9243048
6085,165892691.9243046
2,14, 1,14, 0, 7, 0.00,60.00,Saturday
213,198035809.06150955
6085,198035809.0615093
2,14, 1,14, 0, 8, 0.00,60.00,Saturday
213,204903695.87977898
6085,204903695.87977874
2,14, 1,14, 0, 9, 0.00,60.00,Saturday
213,189652659.0733175
6085,189652659.07331726
2,14, 1,14, 0,10, 0.00,60.00,Saturday
213,180515994.99160373
6085,180515994.9916035
2,14, 1,14, 0,11, 0.00,60.00,Saturday
213,172604649.79155016
6085,172604649.79154995
2,14, 1,14, 0,12, 0.00,60.00,Saturday
213,171758927.2330938
6085,171758927.23309356
2,14, 1,14, 0,13, 0.00,60.00,Saturday
213,170079202.4650529
6085,170079202.4650527
2,14, 1,14, 0,14, 0.00,60.00,Saturday
213,165181719.30494618
6085,165181719.30494595
2,14, 1,14, 0,15, 0.00,60.00,Saturday
213,161804948.80657217
6085,161804948.806572
2,14, 1,14, 0,16, 0.00,60.00,Saturday
213,168506002.30403566
6085,168506002.30403548
2,14, 1,14, 0,17, 0.00,60.00,Saturday
213,211404136.8183217
6085,211404136.8183215
2,14, 1,14, 0,18, 0.00,60.00,Saturday
213,272665636.9051602
6085,272665636.90516067
2,14, 1,14, 0,19, 0.00,60.00,Saturday
213,299696399.9738149
6085,299696399.9738154
2,14, 1,14, 0,20, 0.00,60.00,Saturday
213,285325814.78205204
6085,285325814.7820526
2,14, 1,14, 0,21, 0.00,60.00,Saturday
213,276839842.7234969
6085,276839842.7234974
2,14, 1,14, 0,22, 0.00,60.00,Saturday
213,255342407.16505265
6085,255342407.16505274
2,14, 1,14, 0,23, 0.00,60.00,Saturday
213,215434881.72036543
6085,215434881.7203652
2,14, 1,14, 0,24, 0.00,60.00,Saturday
213,179668460.2663803
6085,179668460.2663801
2,15, 1,15, 0, 1, 0.00,60.00,Sunday
213,154051902.54068002
6085,154051902.54067993
2,15, 1,15, 0, 2, 0.00,60.00,Sunday
213,147749716.91588333
6085,147749716.91588306
2,15, 1,15, 0, 3, 0.00,60.00,Sunday
213,145143467.26758426
6085,145143467.2675842
2,15, 1,15, 0, 4, 0.00,60.00,Sunday
213,143681781.5159969
6085,143681781.5159969
2,15, 1,15, 0, 5, 0.00,60.00,Sunday
213,146446464.1838857
6085,146446464.1838855
2,15, 1,15, 0, 6, 0.00,60.00,Sunday
213,164861842.6857524
6085,164861842.68575218
2,15, 1,15, 0, 7, 0.00,60.00,Sunday
213,197116067.60920325
6085,197116067.60920304
2,15, 1,15, 0, 8, 0.00,60.00,Sunday
213,203153413.9841963
6085,203153413.98419613
2,15, 1,15, 0, 9, 0.00,60.00,Sunday
213,188221912.93553352
6085,188221912.9355333
2,15, 1,15, 0,10, 0.00,60.00,Sunday
213,178875505.84028286
6085,178875505.84028262
2,15, 1,15, 0,11, 0.00,60.00,Sunday
213,169746325.44913948
6085,169746325.44913924
2,15, 1,15, 0,12, 0.00,60.00,Sunday
213,169954869.88715708
6085,169954869.88715687
2,15, 1,15, 0,13, 0.00,60.00,Sunday
213,167994178.37158263
6085,167994178.37158242
2,15, 1,15, 0,14, 0.00,60.00,Sunday
213,162496408.35255998
6085,162496408.35255978
2,15, 1,15, 0,15, 0.00,60.00,Sunday
213,160568080.285228
6085,160568080.2852278
2,15, 1,15, 0,16, 0.00,60.00,Sunday
213,168928322.76907957
6085,168928322.7690794
2,15, 1,15, 0,17, 0.00,60.00,Sunday
213,208505441.35004574
6085,208505441.35004556