Program Version,EnergyPlus, Version 26.1.0-6f2e40d102, YMD=2026.04.15 00:28
1,5,Environment Title[],Latitude[deg],Longitude[deg],Time Zone[],Elevation[m]
2,8,Day of Simulation[],Month[],Day of Month[],DST Indicator[1=yes 0=no],Hour[],StartMinute[],EndMinute[],DayType
3,5,Cumulative Day of Simulation[],Month[],Day of Month[],DST Indicator[1=yes 0=no],DayType  ! When Daily Meters Requested
4,2,Cumulative Days of Simulation[],Month[]  ! When Monthly Meters Requested
5,1,Cumulative Days of Simulation[] ! When Run Period Meters Requested
6,1,Calendar Year of Simulation[] ! When Annual Meters Requested
213,1,Electricity:Facility [J] !Hourly
6085,1,ElectricityNet:Facility [J] !Hourly
End of Data Dictionary
1,RUNPERIOD 1,  28.11, 112.79,   8.00, 120.00
2,1, 1, 1, 0, 1, 0.00,60.00,Holiday
213,171420250.34504753
6085,171420250.3450475
2,1, 1, 1, 0, 2, 0.00,60.00,Holiday
213,163716696.47666046
6085,163716696.47666028
2,1, 1, 1, 0, 3, 0.00,60.00,Holiday
213,161388849.16228366
6085,161388849.16228342
2,1, 1, 1, 0, 4, 0.00,60.00,Holiday
213,160745235.95733076
6085,160745235.95733058
2,1, 1, 1, 0, 5, 0.00,60.00,Holiday
213,163223211.0020453
6085,163223211.0020451
2,1, 1, 1, 0, 6, 0.00,60.00,Holiday
213,179779120.52636567
6085,179779120.52636546
2,1, 1, 1, 0, 7, 0.00,60.00,Holiday
213,204424696.3650294
6085,204424696.36502922
2,1, 1, 1, 0, 8, 0.00,60.00,Holiday
213,205626385.28990504
6085,205626385.28990486
2,1, 1, 1, 0, 9, 0.00,60.00,Holiday
213,193600567.53566018
6085,193600567.53565997
2,1, 1, 1, 0,10, 0.00,60.00,Holiday
213,185766396.60275206
6085,185766396.60275182
2,1, 1, 1, 0,11, 0.00,60.00,Holiday
213,175088406.17720118
6085,175088406.17720103
2,1, 1, 1, 0,12, 0.00,60.00,Holiday
213,182219950.13774884
6085,182219950.13774857
2,1, 1, 1, 0,13, 0.00,60.00,Holiday
213,180901468.06221673
6085,180901468.06221652
2,1, 1, 1, 0,14, 0.00,60.00,Holiday
213,173897281.56691825
6085,173897281.56691808
2,1, 1, 1, 0,15, 0.00,60.00,Holiday
213,177757683.20981684
6085,177757683.20981666
2,1, 1, 1, 0,16, 0.00,60.00,Holiday
213,187401865.40822142
6085,187401865.40822124
2,1, 1, 1, 0,17, 0.00,60.00,Holiday
213,215724358.24965352
6085,215724358.24965334
2,1, 1, 1, 0,18, 0.00,60.00,Holiday
213,273068223.0476288
6085,273068223.0476293
2,1, 1, 1, 0,19, 0.00,60.00,Holiday
213,291095088.44786847
6085,291095088.44786894
2,1, 1, 1, 0,20, 0.00,60.00,Holiday
213,276848153.65434176
6085,276848153.65434223
2,1, 1, 1, 0,21, 0.00,60.00,Holiday
213,270223179.2782104
6085,270223179.2782109
2,1, 1, 1, 0,22, 0.00,60.00,Holiday
213,250897338.2014644
6085,250897338.20146456
2,1, 1, 1, 0,23, 0.00,60.00,Holiday
213,217548886.4249678
6085,217548886.4249676
2,1, 1, 1, 0,24, 0.00,60.00,Holiday
213,192248401.52884388
6085,192248401.52884364
2,2, 1, 2, 0, 1, 0.00,60.00,Monday
213,172552168.25026035
6085,172552168.25026026
2,2, 1, 2, 0, 2, 0.00,60.00,Monday
213,165401751.14397267
6085,165401751.14397246
2,2, 1, 2, 0, 3, 0.00,60.00,Monday
213,163189867.16227612
6085,163189867.1622759
2,2, 1, 2, 0, 4, 0.00,60.00,Monday
213,162140073.4479714
6085,162140073.44797122
2,2, 1, 2, 0, 5, 0.00,60.00,Monday
213,165866977.74605
6085,165866977.74604982
2,2, 1, 2, 0, 6, 0.00,60.00,Monday
213,181477298.49471954
6085,181477298.49471936
2,2, 1, 2, 0, 7, 0.00,60.00,Monday
213,207866639.13310003
6085,207866639.1330998
2,2, 1, 2, 0, 8, 0.00,60.00,Monday
213,208719890.62825978
6085,208719890.62825957
2,2, 1, 2, 0, 9, 0.00,60.00,Monday
213,203934311.4024024
6085,203934311.4024022
2,2, 1, 2, 0,10, 0.00,60.00,Monday
213,196301483.86065486
6085,196301483.86065465
2,2, 1, 2, 0,11, 0.00,60.00,Monday
213,187091095.98936096
6085,187091095.98936078
2,2, 1, 2, 0,12, 0.00,60.00,Monday
213,189013129.98228908
6085,189013129.98228884
2,2, 1, 2, 0,13, 0.00,60.00,Monday
213,186109284.39994067
6085,186109284.39994046
2,2, 1, 2, 0,14, 0.00,60.00,Monday
213,183708326.90833485
6085,183708326.90833467
2,2, 1, 2, 0,15, 0.00,60.00,Monday
213,181599943.89845315
6085,181599943.89845297
2,2, 1, 2, 0,16, 0.00,60.00,Monday
213,189488408.72070134
6085,189488408.72070107
2,2, 1, 2, 0,17, 0.00,60.00,Monday
213,224535370.63445047
6085,224535370.6344503
2,2, 1, 2, 0,18, 0.00,60.00,Monday
213,274388221.0316803
6085,274388221.03168076
2,2, 1, 2, 0,19, 0.00,60.00,Monday
213,291729194.32765985
6085,291729194.3276603
2,2, 1, 2, 0,20, 0.00,60.00,Monday
213,279754007.18688715
6085,279754007.1868876
2,2, 1, 2, 0,21, 0.00,60.00,Monday
213,273946927.67712885
6085,273946927.6771293
2,2, 1, 2, 0,22, 0.00,60.00,Monday
213,254409047.32204542
6085,254409047.32204556
2,2, 1, 2, 0,23, 0.00,60.00,Monday
213,219609719.07488567
6085,219609719.07488546
2,2, 1, 2, 0,24, 0.00,60.00,Monday
213,195841732.64595997
6085,195841732.64595973
2,3, 1, 3, 0, 1, 0.00,60.00,Tuesday
213,175976572.33393386
6085,175976572.33393377
2,3, 1, 3, 0, 2, 0.00,60.00,Tuesday
213,170531992.57849246
6085,170531992.57849228
2,3, 1, 3, 0, 3, 0.00,60.00,Tuesday
213,168724118.03252292
6085,168724118.0325227
2,3, 1, 3, 0, 4, 0.00,60.00,Tuesday
213,167724447.5992345
6085,167724447.59923425
2,3, 1, 3, 0, 5, 0.00,60.00,Tuesday
213,170957196.14412886
6085,170957196.14412874
2,3, 1, 3, 0, 6, 0.00,60.00,Tuesday
213,188386778.5337545
6085,188386778.53375432
2,3, 1, 3, 0, 7, 0.00,60.00,Tuesday
213,213497356.0858819
6085,213497356.08588168
2,3, 1, 3, 0, 8, 0.00,60.00,Tuesday
213,212492899.8449551
6085,212492899.8449549
2,3, 1, 3, 0, 9, 0.00,60.00,Tuesday
213,207339172.33174556
6085,207339172.33174536
2,3, 1, 3, 0,10, 0.00,60.00,Tuesday
213,198851963.28607494
6085,198851963.28607473
2,3, 1, 3, 0,11, 0.00,60.00,Tuesday
213,190170160.97958755
6085,190170160.97958738
2,3, 1, 3, 0,12, 0.00,60.00,Tuesday
213,192085410.65170136
6085,192085410.65170115
2,3, 1, 3, 0,13, 0.00,60.00,Tuesday
213,189290757.59418
6085,189290757.59417978
2,3, 1, 3, 0,14, 0.00,60.00,Tuesday
213,188077730.46402606
6085,188077730.46402588
2,3, 1, 3, 0,15, 0.00,60.00,Tuesday
213,186717099.1512419
6085,186717099.1512417
2,3, 1, 3, 0,16, 0.00,60.00,Tuesday
213,194803228.36729658
6085,194803228.36729634
2,3, 1, 3, 0,17, 0.00,60.00,Tuesday
213,228312682.56766188
6085,228312682.56766176
2,3, 1, 3, 0,18, 0.00,60.00,Tuesday
213,277499852.49191475
6085,277499852.4919153
2,3, 1, 3, 0,19, 0.00,60.00,Tuesday
213,295472775.0005317
6085,295472775.0005322
2,3, 1, 3, 0,20, 0.00,60.00,Tuesday
213,282264188.67842126
6085,282264188.6784217
2,3, 1, 3, 0,21, 0.00,60.00,Tuesday
213,275702382.0295041
6085,275702382.02950466
2,3, 1, 3, 0,22, 0.00,60.00,Tuesday
213,255704515.80653834
6085,255704515.80653852
2,3, 1, 3, 0,23, 0.00,60.00,Tuesday
213,220547282.55087012
6085,220547282.5508699
2,3, 1, 3, 0,24, 0.00,60.00,Tuesday
213,194049011.10389513
6085,194049011.1038949
2,4, 1, 4, 0, 1, 0.00,60.00,Wednesday
213,174890049.6546826
6085,174890049.65468252
2,4, 1, 4, 0, 2, 0.00,60.00,Wednesday
213,171689040.16613048
6085,171689040.1661303
2,4, 1, 4, 0, 3, 0.00,60.00,Wednesday
213,173034166.62592062
6085,173034166.62592041
2,4, 1, 4, 0, 4, 0.00,60.00,Wednesday
213,172714467.78828275
6085,172714467.7882826
2,4, 1, 4, 0, 5, 0.00,60.00,Wednesday
213,173567376.5922916
6085,173567376.59229144
2,4, 1, 4, 0, 6, 0.00,60.00,Wednesday
213,189166240.5417722
6085,189166240.54177192
2,4, 1, 4, 0, 7, 0.00,60.00,Wednesday
213,211815050.99123713
6085,211815050.99123693
2,4, 1, 4, 0, 8, 0.00,60.00,Wednesday
213,212930602.94767612
6085,212930602.947676
2,4, 1, 4, 0, 9, 0.00,60.00,Wednesday
213,208540518.88256025
6085,208540518.88256007
2,4, 1, 4, 0,10, 0.00,60.00,Wednesday
213,198713017.6169607
6085,198713017.61696047
2,4, 1, 4, 0,11, 0.00,60.00,Wednesday
213,185080213.36992794
6085,185080213.3699277
2,4, 1, 4, 0,12, 0.00,60.00,Wednesday
213,181307580.0259992
6085,181307580.02599895
2,4, 1, 4, 0,13, 0.00,60.00,Wednesday
213,175829022.96544755
6085,175829022.96544737
2,4, 1, 4, 0,14, 0.00,60.00,Wednesday
213,172272805.61840904
6085,172272805.61840883
2,4, 1, 4, 0,15, 0.00,60.00,Wednesday
213,173657629.6632587
6085,173657629.66325855
2,4, 1, 4, 0,16, 0.00,60.00,Wednesday
213,182376420.57987264
6085,182376420.57987243
2,4, 1, 4, 0,17, 0.00,60.00,Wednesday
213,216613707.2656805
6085,216613707.26568034
2,4, 1, 4, 0,18, 0.00,60.00,Wednesday
213,270077584.5471838
6085,270077584.5471843
2,4, 1, 4, 0,19, 0.00,60.00,Wednesday
213,291251630.91725206
6085,291251630.9172526
2,4, 1, 4, 0,20, 0.00,60.00,Wednesday
213,276145854.9406202
6085,276145854.9406206
2,4, 1, 4, 0,21, 0.00,60.00,Wednesday
213,270894730.1643925
6085,270894730.16439295
2,4, 1, 4, 0,22, 0.00,60.00,Wednesday
213,252069517.7358265
6085,252069517.73582673
2,4, 1, 4, 0,23, 0.00,60.00,Wednesday
213,215963293.8402057
6085,215963293.84020555
2,4, 1, 4, 0,24, 0.00,60.00,Wednesday
213,191098958.90843424
6085,191098958.908434
2,5, 1, 5, 0, 1, 0.00,60.00,Thursday
213,171309904.29697043
6085,171309904.2969704
2,5, 1, 5, 0, 2, 0.00,60.00,Thursday
213,164389832.9576283
6085,164389832.95762816
2,5, 1, 5, 0, 3, 0.00,60.00,Thursday
213,165397816.18508914
6085,165397816.18508896
2,5, 1, 5, 0, 4, 0.00,60.00,Thursday
213,164543483.468407
6085,164543483.46840683
2,5, 1, 5, 0, 5, 0.00,60.00,Thursday
213,164746491.01559728
6085,164746491.0155971
2,5, 1, 5, 0, 6, 0.00,60.00,Thursday
213,183400890.78991282
6085,183400890.78991264
2,5, 1, 5, 0, 7, 0.00,60.00,Thursday
213,209941733.82305712
6085,209941733.82305694
2,5, 1, 5, 0, 8, 0.00,60.00,Thursday
213,209690894.2233218
6085,209690894.22332162
2,5, 1, 5, 0, 9, 0.00,60.00,Thursday
213,198505930.5352857
6085,198505930.53528544
2,5, 1, 5, 0,10, 0.00,60.00,Thursday
213,181114481.2920534
6085,181114481.2920532
2,5, 1, 5, 0,11, 0.00,60.00,Thursday
213,169718752.69836771
6085,169718752.69836754
2,5, 1, 5, 0,12, 0.00,60.00,Thursday
213,169902434.21085098
6085,169902434.21085072
2,5, 1, 5, 0,13, 0.00,60.00,Thursday
213,166600598.19767353
6085,166600598.19767335
2,5, 1, 5, 0,14, 0.00,60.00,Thursday
213,163176195.83563295
6085,163176195.83563274
2,5, 1, 5, 0,15, 0.00,60.00,Thursday
213,160695090.50365946
6085,160695090.50365928
2,5, 1, 5, 0,16, 0.00,60.00,Thursday
213,170959299.85728458
6085,170959299.85728437
2,5, 1, 5, 0,17, 0.00,60.00,Thursday
213,209017025.81714422
6085,209017025.8171441
2,5, 1, 5, 0,18, 0.00,60.00,Thursday
213,257350302.91548705
6085,257350302.91548753
2,5, 1, 5, 0,19, 0.00,60.00,Thursday
213,283945765.47080475
6085,283945765.47080517
2,5, 1, 5, 0,20, 0.00,60.00,Thursday
213,273324798.13107467
6085,273324798.1310751
2,5, 1, 5, 0,21, 0.00,60.00,Thursday
213,266783194.30139363
6085,266783194.30139413
2,5, 1, 5, 0,22, 0.00,60.00,Thursday
213,246294564.63552862
6085,246294564.63552877
2,5, 1, 5, 0,23, 0.00,60.00,Thursday
213,209460134.1642644
6085,209460134.1642642
2,5, 1, 5, 0,24, 0.00,60.00,Thursday
213,178180466.969265
6085,178180466.96926478
2,6, 1, 6, 0, 1, 0.00,60.00,Friday
213,155742517.57873237
6085,155742517.5787323
2,6, 1, 6, 0, 2, 0.00,60.00,Friday
213,150199903.1772426
6085,150199903.1772424
2,6, 1, 6, 0, 3, 0.00,60.00,Friday
213,148004313.26951772
6085,148004313.26951763
2,6, 1, 6, 0, 4, 0.00,60.00,Friday
213,146896185.72761318
6085,146896185.72761318
2,6, 1, 6, 0, 5, 0.00,60.00,Friday
213,150353330.09569308
6085,150353330.09569287
2,6, 1, 6, 0, 6, 0.00,60.00,Friday
213,168716244.39622632
6085,168716244.3962261
2,6, 1, 6, 0, 7, 0.00,60.00,Friday
213,198171674.74777892
6085,198171674.74777874
2,6, 1, 6, 0, 8, 0.00,60.00,Friday
213,202306523.73400652
6085,202306523.73400635
2,6, 1, 6, 0, 9, 0.00,60.00,Friday
213,190049389.05221564
6085,190049389.0522154
2,6, 1, 6, 0,10, 0.00,60.00,Friday
213,178332638.20192534
6085,178332638.20192507
2,6, 1, 6, 0,11, 0.00,60.00,Friday
213,170106235.6639466
6085,170106235.66394642
2,6, 1, 6, 0,12, 0.00,60.00,Friday
213,187503661.3366062
6085,187503661.33660603
2,6, 1, 6, 0,13, 0.00,60.00,Friday
213,198787313.61905703
6085,198787313.61905682
2,6, 1, 6, 0,14, 0.00,60.00,Friday
213,206375410.1264913
6085,206375410.12649116
2,6, 1, 6, 0,15, 0.00,60.00,Friday
213,209568584.24404258
6085,209568584.2440424
2,6, 1, 6, 0,16, 0.00,60.00,Friday
213,218458108.390136
6085,218458108.39013582
2,6, 1, 6, 0,17, 0.00,60.00,Friday
213,247877808.52772957
6085,247877808.52772966
2,6, 1, 6, 0,18, 0.00,60.00,Friday
213,281966237.969609
6085,281966237.96960956
2,6, 1, 6, 0,19, 0.00,60.00,Friday
213,300305069.31747925
6085,300305069.3174797
2,6, 1, 6, 0,20, 0.00,60.00,Friday
213,281034122.0729302
6085,281034122.0729307
2,6, 1, 6, 0,21, 0.00,60.00,Friday
213,271706791.5638565
6085,271706791.56385696
2,6, 1, 6, 0,22, 0.00,60.00,Friday
213,248727118.03318205
6085,248727118.03318226
2,6, 1, 6, 0,23, 0.00,60.00,Friday
213,209145821.96249983
6085,209145821.96249965
2,6, 1, 6, 0,24, 0.00,60.00,Friday
213,177145597.4043328
6085,177145597.4043326
2,7, 1, 7, 0, 1, 0.00,60.00,Saturday
213,154932092.1895514
6085,154932092.18955135
2,7, 1, 7, 0, 2, 0.00,60.00,Saturday
213,149345433.54622185
6085,149345433.54622164
2,7, 1, 7, 0, 3, 0.00,60.00,Saturday
213,147722684.0442559
6085,147722684.04425585
2,7, 1, 7, 0, 4, 0.00,60.00,Saturday
213,147430790.58075207
6085,147430790.58075204
2,7, 1, 7, 0, 5, 0.00,60.00,Saturday
213,151708331.50348476
6085,151708331.50348455
2,7, 1, 7, 0, 6, 0.00,60.00,Saturday
213,170440360.9426986
6085,170440360.94269842
2,7, 1, 7, 0, 7, 0.00,60.00,Saturday
213,200522755.74452555
6085,200522755.74452534
2,7, 1, 7, 0, 8, 0.00,60.00,Saturday
213,204164067.83560038
6085,204164067.83560023
2,7, 1, 7, 0, 9, 0.00,60.00,Saturday
213,188110572.9206716
6085,188110572.92067134
2,7, 1, 7, 0,10, 0.00,60.00,Saturday
213,180493002.54895836
6085,180493002.54895815
2,7, 1, 7, 0,11, 0.00,60.00,Saturday
213,179256751.5382532
6085,179256751.53825298
2,7, 1, 7, 0,12, 0.00,60.00,Saturday
213,190919467.23004377
6085,190919467.23004356
2,7, 1, 7, 0,13, 0.00,60.00,Saturday
213,199477429.03347528
6085,199477429.0334751
2,7, 1, 7, 0,14, 0.00,60.00,Saturday
213,201083754.88852292
6085,201083754.88852274
2,7, 1, 7, 0,15, 0.00,60.00,Saturday
213,203709637.51548386
6085,203709637.51548368
2,7, 1, 7, 0,16, 0.00,60.00,Saturday
213,209677969.73299104
6085,209677969.73299086
2,7, 1, 7, 0,17, 0.00,60.00,Saturday
213,248101546.2082138
6085,248101546.2082138
2,7, 1, 7, 0,18, 0.00,60.00,Saturday
213,290554739.22067857
6085,290554739.22067904
2,7, 1, 7, 0,19, 0.00,60.00,Saturday
213,305162113.86992687
6085,305162113.8699274
2,7, 1, 7, 0,20, 0.00,60.00,Saturday
213,286366473.6418885
6085,286366473.6418889
2,7, 1, 7, 0,21, 0.00,60.00,Saturday
213,276704724.16334856
6085,276704724.16334903
2,7, 1, 7, 0,22, 0.00,60.00,Saturday
213,252850549.7430702
6085,252850549.74307042
2,7, 1, 7, 0,23, 0.00,60.00,Saturday
213,211978807.71277937
6085,211978807.71277922
2,7, 1, 7, 0,24, 0.00,60.00,Saturday
213,178122683.07769075
6085,178122683.07769057
2,8, 1, 8, 0, 1, 0.00,60.00,Sunday
213,154333759.43547475
6085,154333759.4354747
2,8, 1, 8, 0, 2, 0.00,60.00,Sunday
213,148660410.29755414
6085,148660410.29755396
2,8, 1, 8, 0, 3, 0.00,60.00,Sunday
213,146117630.7539917
6085,146117630.7539916
2,8, 1, 8, 0, 4, 0.00,60.00,Sunday
213,145354449.54227784
6085,145354449.54227778
2,8, 1, 8, 0, 5, 0.00,60.00,Sunday
213,149051765.5444885
6085,149051765.5444883
2,8, 1, 8, 0, 6, 0.00,60.00,Sunday
213,167839066.67482457
6085,167839066.67482436
2,8, 1, 8, 0, 7, 0.00,60.00,Sunday
213,198999132.22450563
6085,198999132.22450542
2,8, 1, 8, 0, 8, 0.00,60.00,Sunday
213,203255062.52302146
6085,203255062.52302128
2,8, 1, 8, 0, 9, 0.00,60.00,Sunday
213,191030339.04300204
6085,191030339.04300183
2,8, 1, 8, 0,10, 0.00,60.00,Sunday
213,193974394.71734908
6085,193974394.71734887
2,8, 1, 8, 0,11, 0.00,60.00,Sunday
213,205324461.81946266
6085,205324461.81946242
2,8, 1, 8, 0,12, 0.00,60.00,Sunday
213,225270750.4023481
6085,225270750.40234792
2,8, 1, 8, 0,13, 0.00,60.00,Sunday
213,235001783.2789378
6085,235001783.2789376
2,8, 1, 8, 0,14, 0.00,60.00,Sunday
213,236815816.53147626
6085,236815816.53147614
2,8, 1, 8, 0,15, 0.00,60.00,Sunday
213,239255836.59401774
6085,239255836.5940176
2,8, 1, 8, 0,16, 0.00,60.00,Sunday
213,239462235.3809408
6085,239462235.38094062
2,8, 1, 8, 0,17, 0.00,60.00,Sunday
213,271520760.2487283
6085,271520760.24872845
2,8, 1, 8, 0,18, 0.00,60.00,Sunday
213,309542298.13947386
6085,309542298.1394744
2,8, 1, 8, 0,19, 0.00,60.00,Sunday
213,319890197.05628026
6085,319890197.0562808
2,8, 1, 8, 0,20, 0.00,60.00,Sunday
213,298711941.05523175
6085,298711941.0552323
2,8, 1, 8, 0,21, 0.00,60.00,Sunday
213,287004478.4707307
6085,287004478.47073114
2,8, 1, 8, 0,22, 0.00,60.00,Sunday
213,261653713.46490675
6085,261653713.46490693
2,8, 1, 8, 0,23, 0.00,60.00,Sunday
213,218524515.9621105
6085,218524515.9621103
2,8, 1, 8, 0,24, 0.00,60.00,Sunday
213,181359955.40325856
6085,181359955.40325835
2,9, 1, 9, 0, 1, 0.00,60.00,Monday
213,155935680.86220506
6085,155935680.86220497
2,9, 1, 9, 0, 2, 0.00,60.00,Monday
213,148983731.11432958
6085,148983731.11432937
2,9, 1, 9, 0, 3, 0.00,60.00,Monday
213,145850872.32962424
6085,145850872.32962415
2,9, 1, 9, 0, 4, 0.00,60.00,Monday
213,144736966.29060087
6085,144736966.29060084
2,9, 1, 9, 0, 5, 0.00,60.00,Monday
213,148853067.94863787
6085,148853067.9486377
2,9, 1, 9, 0, 6, 0.00,60.00,Monday
213,168187959.67584512
6085,168187959.6758449
2,9, 1, 9, 0, 7, 0.00,60.00,Monday
213,199844413.14006805
6085,199844413.14006785
2,9, 1, 9, 0, 8, 0.00,60.00,Monday
213,205309958.847426
6085,205309958.84742585
2,9, 1, 9, 0, 9, 0.00,60.00,Monday
213,194139388.82183206
6085,194139388.82183182
2,9, 1, 9, 0,10, 0.00,60.00,Monday
213,198968002.15309972
6085,198968002.1530995
2,9, 1, 9, 0,11, 0.00,60.00,Monday
213,212318590.8983776
6085,212318590.89837745
2,9, 1, 9, 0,12, 0.00,60.00,Monday
213,238054185.4778046
6085,238054185.47780445
2,9, 1, 9, 0,13, 0.00,60.00,Monday
213,250662459.4711855
6085,250662459.4711854
2,9, 1, 9, 0,14, 0.00,60.00,Monday
213,257122793.34077623
6085,257122793.3407761
2,9, 1, 9, 0,15, 0.00,60.00,Monday
213,259853113.59385598
6085,259853113.59385583
2,9, 1, 9, 0,16, 0.00,60.00,Monday
213,266477664.68887275
6085,266477664.68887252
2,9, 1, 9, 0,17, 0.00,60.00,Monday
213,291989872.0416333
6085,291989872.04163355
2,9, 1, 9, 0,18, 0.00,60.00,Monday
213,316163835.9161414
6085,316163835.9161419
2,9, 1, 9, 0,19, 0.00,60.00,Monday
213,328597436.4220861
6085,328597436.4220866
2,9, 1, 9, 0,20, 0.00,60.00,Monday
213,305172184.65693045
6085,305172184.6569309
2,9, 1, 9, 0,21, 0.00,60.00,Monday
213,292867738.3422917
6085,292867738.3422922
2,9, 1, 9, 0,22, 0.00,60.00,Monday
213,267256405.62333906
6085,267256405.6233392
2,9, 1, 9, 0,23, 0.00,60.00,Monday
213,223890155.45978606
6085,223890155.45978594
2,9, 1, 9, 0,24, 0.00,60.00,Monday
213,184470780.13493127
6085,184470780.13493103
2,10, 1,10, 0, 1, 0.00,60.00,Tuesday
213,157379974.54402506
6085,157379974.544025
2,10, 1,10, 0, 2, 0.00,60.00,Tuesday
213,150725613.44694906
6085,150725613.44694892
2,10, 1,10, 0, 3, 0.00,60.00,Tuesday
213,147260035.92487416
6085,147260035.92487407
2,10, 1,10, 0, 4, 0.00,60.00,Tuesday
213,145520777.5230275
6085,145520777.52302748
2,10, 1,10, 0, 5, 0.00,60.00,Tuesday
213,148892810.7961076
6085,148892810.7961074
2,10, 1,10, 0, 6, 0.00,60.00,Tuesday
213,167854545.85523036
6085,167854545.85523015
2,10, 1,10, 0, 7, 0.00,60.00,Tuesday
213,200413013.34827963
6085,200413013.34827942
2,10, 1,10, 0, 8, 0.00,60.00,Tuesday
213,205959479.81895742
6085,205959479.81895724
2,10, 1,10, 0, 9, 0.00,60.00,Tuesday
213,195314215.89387083
6085,195314215.89387056
2,10, 1,10, 0,10, 0.00,60.00,Tuesday
213,201339373.34125882
6085,201339373.34125865
2,10, 1,10, 0,11, 0.00,60.00,Tuesday
213,217081109.64356297
6085,217081109.64356282
2,10, 1,10, 0,12, 0.00,60.00,Tuesday
213,243209696.31080562
6085,243209696.31080544
2,10, 1,10, 0,13, 0.00,60.00,Tuesday
213,254134211.28575006
6085,254134211.28574997
2,10, 1,10, 0,14, 0.00,60.00,Tuesday
213,258994292.16840354
6085,258994292.1684033
2,10, 1,10, 0,15, 0.00,60.00,Tuesday
213,257625638.8314731
6085,257625638.83147296
2,10, 1,10, 0,16, 0.00,60.00,Tuesday
213,261891334.72058707
6085,261891334.72058693
2,10, 1,10, 0,17, 0.00,60.00,Tuesday
213,291081737.49401164
6085,291081737.49401176
2,10, 1,10, 0,18, 0.00,60.00,Tuesday
213,326758587.7862129
6085,326758587.7862134
2,10, 1,10, 0,19, 0.00,60.00,Tuesday
213,341684486.3391184
6085,341684486.3391188
2,10, 1,10, 0,20, 0.00,60.00,Tuesday
213,316891914.2433431
6085,316891914.24334365
2,10, 1,10, 0,21, 0.00,60.00,Tuesday
213,301546464.8903398
6085,301546464.8903402
2,10, 1,10, 0,22, 0.00,60.00,Tuesday
213,274416199.444758
6085,274416199.4447581
2,10, 1,10, 0,23, 0.00,60.00,Tuesday
213,229870650.0339154
6085,229870650.03391522
2,10, 1,10, 0,24, 0.00,60.00,Tuesday
213,191451087.11693016
6085,191451087.11692995
2,11, 1,11, 0, 1, 0.00,60.00,Wednesday
213,161868728.16863686
6085,161868728.1686368
2,11, 1,11, 0, 2, 0.00,60.00,Wednesday
213,152544210.0576216
6085,152544210.05762142
2,11, 1,11, 0, 3, 0.00,60.00,Wednesday
213,146514405.92874616
6085,146514405.92874604
2,11, 1,11, 0, 4, 0.00,60.00,Wednesday
213,144106254.0043271
6085,144106254.00432706
2,11, 1,11, 0, 5, 0.00,60.00,Wednesday
213,147601740.29679236
6085,147601740.29679212
2,11, 1,11, 0, 6, 0.00,60.00,Wednesday
213,166678792.65322948
6085,166678792.65322927
2,11, 1,11, 0, 7, 0.00,60.00,Wednesday
213,201079895.87449986
6085,201079895.87449968
2,11, 1,11, 0, 8, 0.00,60.00,Wednesday
213,209270099.7228845
6085,209270099.7228843
2,11, 1,11, 0, 9, 0.00,60.00,Wednesday
213,192701142.33570343
6085,192701142.3357032
2,11, 1,11, 0,10, 0.00,60.00,Wednesday
213,183946854.53202668
6085,183946854.53202644
2,11, 1,11, 0,11, 0.00,60.00,Wednesday
213,176182121.72712395
6085,176182121.72712377
2,11, 1,11, 0,12, 0.00,60.00,Wednesday
213,177274426.8213213
6085,177274426.82132107
2,11, 1,11, 0,13, 0.00,60.00,Wednesday
213,175167480.69259274
6085,175167480.69259256
2,11, 1,11, 0,14, 0.00,60.00,Wednesday
213,173822662.3283849
6085,173822662.3283847
2,11, 1,11, 0,15, 0.00,60.00,Wednesday
213,166969046.0269903
6085,166969046.02699012
2,11, 1,11, 0,16, 0.00,60.00,Wednesday
213,174165731.82856962
6085,174165731.8285694
2,11, 1,11, 0,17, 0.00,60.00,Wednesday
213,212897227.030625
6085,212897227.03062484
2,11, 1,11, 0,18, 0.00,60.00,Wednesday
213,269861187.69460624
6085,269861187.6946068
2,11, 1,11, 0,19, 0.00,60.00,Wednesday
213,301111744.06207436
6085,301111744.0620749
2,11, 1,11, 0,20, 0.00,60.00,Wednesday
213,285666900.64932483
6085,285666900.6493253
2,11, 1,11, 0,21, 0.00,60.00,Wednesday
213,277786569.091885
6085,277786569.0918854
2,11, 1,11, 0,22, 0.00,60.00,Wednesday
213,254940070.4336994
6085,254940070.4336996
2,11, 1,11, 0,23, 0.00,60.00,Wednesday
213,214528072.88792837
6085,214528072.88792813
2,11, 1,11, 0,24, 0.00,60.00,Wednesday
213,180488655.02901122
6085,180488655.029011
2,12, 1,12, 0, 1, 0.00,60.00,Thursday
213,155867803.82231155
6085,155867803.8223115
2,12, 1,12, 0, 2, 0.00,60.00,Thursday
213,149635021.02640855
6085,149635021.0264083
2,12, 1,12, 0, 3, 0.00,60.00,Thursday
213,146635822.7724543
6085,146635822.7724542
2,12, 1,12, 0, 4, 0.00,60.00,Thursday
213,145144698.0701494
6085,145144698.0701494
2,12, 1,12, 0, 5, 0.00,60.00,Thursday
213,148389669.95779207
6085,148389669.9577919
2,12, 1,12, 0, 6, 0.00,60.00,Thursday
213,167451557.71010634
6085,167451557.71010616
2,12, 1,12, 0, 7, 0.00,60.00,Thursday
213,198359217.12901857
6085,198359217.12901837
2,12, 1,12, 0, 8, 0.00,60.00,Thursday
213,202728435.85649505
6085,202728435.8564948
2,12, 1,12, 0, 9, 0.00,60.00,Thursday
213,192133477.28285336
6085,192133477.2828532
2,12, 1,12, 0,10, 0.00,60.00,Thursday
213,182024013.1581322
6085,182024013.15813196
2,12, 1,12, 0,11, 0.00,60.00,Thursday
213,170525551.19637045
6085,170525551.19637027
2,12, 1,12, 0,12, 0.00,60.00,Thursday
213,172503657.80629972
6085,172503657.8062995
2,12, 1,12, 0,13, 0.00,60.00,Thursday
213,169836178.70221168
6085,169836178.70221144
2,12, 1,12, 0,14, 0.00,60.00,Thursday
213,165288358.2895847
6085,165288358.28958452
2,12, 1,12, 0,15, 0.00,60.00,Thursday
213,162414816.28527743
6085,162414816.28527725
2,12, 1,12, 0,16, 0.00,60.00,Thursday
213,171352571.12406033
6085,171352571.1240601
2,12, 1,12, 0,17, 0.00,60.00,Thursday
213,209652661.9332205
6085,209652661.9332204
2,12, 1,12, 0,18, 0.00,60.00,Thursday
213,266372890.29948065
6085,266372890.29948115
2,12, 1,12, 0,19, 0.00,60.00,Thursday
213,293866153.2773343
6085,293866153.27733475
2,12, 1,12, 0,20, 0.00,60.00,Thursday
213,279544073.77162534
6085,279544073.77162576
2,12, 1,12, 0,21, 0.00,60.00,Thursday
213,272220624.52897227
6085,272220624.52897274
2,12, 1,12, 0,22, 0.00,60.00,Thursday
213,250963918.22379914
6085,250963918.2237993
2,12, 1,12, 0,23, 0.00,60.00,Thursday
213,212258665.66044837
6085,212258665.6604482
2,12, 1,12, 0,24, 0.00,60.00,Thursday
213,180730198.80836585
6085,180730198.8083656
2,13, 1,13, 0, 1, 0.00,60.00,Friday
213,157201650.0602976
6085,157201650.06029755
2,13, 1,13, 0, 2, 0.00,60.00,Friday
213,150406316.00918832
6085,150406316.0091881
2,13, 1,13, 0, 3, 0.00,60.00,Friday
213,147970138.3985338
6085,147970138.3985337
2,13, 1,13, 0, 4, 0.00,60.00,Friday
213,146462563.67625153
6085,146462563.6762515
2,13, 1,13, 0, 5, 0.00,60.00,Friday
213,149113622.01626003
6085,149113622.01625985
2,13, 1,13, 0, 6, 0.00,60.00,Friday
213,168056837.38197386
6085,168056837.38197365
2,13, 1,13, 0, 7, 0.00,60.00,Friday
213,198829131.09093794
6085,198829131.09093767
2,13, 1,13, 0, 8, 0.00,60.00,Friday
213,202429946.2288568
6085,202429946.2288566
2,13, 1,13, 0, 9, 0.00,60.00,Friday
213,192241950.67238608
6085,192241950.6723858
2,13, 1,13, 0,10, 0.00,60.00,Friday
213,182413243.2475708
6085,182413243.24757057
2,13, 1,13, 0,11, 0.00,60.00,Friday
213,172195461.6062316
6085,172195461.6062314
2,13, 1,13, 0,12, 0.00,60.00,Friday
213,173101888.1687953
6085,173101888.16879508
2,13, 1,13, 0,13, 0.00,60.00,Friday
213,169177548.7349432
6085,169177548.73494306
2,13, 1,13, 0,14, 0.00,60.00,Friday
213,165817054.76535237
6085,165817054.7653522
2,13, 1,13, 0,15, 0.00,60.00,Friday
213,163181059.57474515
6085,163181059.57474494
2,13, 1,13, 0,16, 0.00,60.00,Friday
213,172211690.59343505
6085,172211690.59343484
2,13, 1,13, 0,17, 0.00,60.00,Friday
213,210427980.00832066
6085,210427980.00832048
2,13, 1,13, 0,18, 0.00,60.00,Friday
213,265678749.6630798
6085,265678749.66308033
2,13, 1,13, 0,19, 0.00,60.00,Friday
213,289713078.2809887
6085,289713078.2809892
2,13, 1,13, 0,20, 0.00,60.00,Friday
213,275534989.02494955
6085,275534989.0249501
2,13, 1,13, 0,21, 0.00,60.00,Friday
213,269420366.8454512
6085,269420366.8454517
2,13, 1,13, 0,22, 0.00,60.00,Friday
213,248942480.37984025
6085,248942480.37984037
2,13, 1,13, 0,23, 0.00,60.00,Friday
213,211486625.4137547
6085,211486625.41375452
2,13, 1,13, 0,24, 0.00,60.00,Friday
213,179872259.02458158
6085,179872259.02458137
2,14, 1,14, 0, 1, 0.00,60.00,Saturday
213,156850490.11311224
6085,156850490.11311215
2,14, 1,14, 0, 2, 0.00,60.00,Saturday
213,150683276.79391095
6085,150683276.79391074
2,14, 1,14, 0, 3, 0.00,60.00,Saturday
213,148125116.6852583
6085,148125116.6852582
2,14, 1,14, 0, 4, 0.00,60.00,Saturday
213,146732770.07215106
6085,146732770.07215106
2,14, 1,14, 0, 5, 0.00,60.00,Saturday
213,149656898.2827255
6085,149656898.2827253
2,14, 1,14, 0, 6, 0.00,60.00,Saturday
213,168384271.24919438
6085,168384271.24919423
2,14, 1,14, 0, 7, 0.00,60.00,Saturday
213,199093926.98343748
6085,199093926.98343727
2,14, 1,14, 0, 8, 0.00,60.00,Saturday
213,202246414.6537807
6085,202246414.6537805
2,14, 1,14, 0, 9, 0.00,60.00,Saturday
213,189103100.91063437
6085,189103100.91063413
2,14, 1,14, 0,10, 0.00,60.00,Saturday
213,179075555.63300663
6085,179075555.6330064
2,14, 1,14, 0,11, 0.00,60.00,Saturday
213,168064674.94906074
6085,168064674.9490605
2,14, 1,14, 0,12, 0.00,60.00,Saturday
213,170805614.0386973
6085,170805614.0386971
2,14, 1,14, 0,13, 0.00,60.00,Saturday
213,168840139.34755433
6085,168840139.34755415
2,14, 1,14, 0,14, 0.00,60.00,Saturday
213,162571830.82027745
6085,162571830.82027724
2,14, 1,14, 0,15, 0.00,60.00,Saturday
213,162794579.32773796
6085,162794579.32773775
2,14, 1,14, 0,16, 0.00,60.00,Saturday
213,171166616.56079715
6085,171166616.56079695
2,14, 1,14, 0,17, 0.00,60.00,Saturday
213,207900434.45538884
6085,207900434.45538867
2,14, 1,14, 0,18, 0.00,60.00,Saturday
213,265818382.46186364
6085,265818382.46186417
2,14, 1,14, 0,19, 0.00,60.00,Saturday
213,290719565.531885
6085,290719565.5318855
2,14, 1,14, 0,20, 0.00,60.00,Saturday
213,276156118.56925595
6085,276156118.5692565
2,14, 1,14, 0,21, 0.00,60.00,Saturday
213,269819749.4322596
6085,269819749.43226016
2,14, 1,14, 0,22, 0.00,60.00,Saturday
213,249112617.718346
6085,249112617.71834618
2,14, 1,14, 0,23, 0.00,60.00,Saturday
213,211543986.55231345
6085,211543986.55231324
2,14, 1,14, 0,24, 0.00,60.00,Saturday
213,180172833.82396704
6085,180172833.82396683
2,15, 1,15, 0, 1, 0.00,60.00,Sunday
213,156877484.6098334
6085,156877484.6098333
2,15, 1,15, 0, 2, 0.00,60.00,Sunday
213,150577390.13749278
6085,150577390.13749257
2,15, 1,15, 0, 3, 0.00,60.00,Sunday
213,149446707.88384888
6085,149446707.88384873
2,15, 1,15, 0, 4, 0.00,60.00,Sunday
213,148988872.74392378
6085,148988872.74392375
2,15, 1,15, 0, 5, 0.00,60.00,Sunday
213,150891253.68134934
6085,150891253.68134916
2,15, 1,15, 0, 6, 0.00,60.00,Sunday
213,167814343.76709703
6085,167814343.76709682
2,15, 1,15, 0, 7, 0.00,60.00,Sunday
213,198356051.07151288
6085,198356051.07151264
2,15, 1,15, 0, 8, 0.00,60.00,Sunday
213,202273344.83132908
6085,202273344.83132884
2,15, 1,15, 0, 9, 0.00,60.00,Sunday
213,190535804.4434711
6085,190535804.44347087
2,15, 1,15, 0,10, 0.00,60.00,Sunday
213,181658454.5011146
6085,181658454.50111437
2,15, 1,15, 0,11, 0.00,60.00,Sunday
213,170529903.40443707
6085,170529903.4044369
2,15, 1,15, 0,12, 0.00,60.00,Sunday
213,171999989.86374298
6085,171999989.86374274
2,15, 1,15, 0,13, 0.00,60.00,Sunday
213,170155492.37394655
6085,170155492.37394634
2,15, 1,15, 0,14, 0.00,60.00,Sunday
213,166407572.47979906
6085,166407572.47979882
2,15, 1,15, 0,15, 0.00,60.00,Sunday
213,164508595.87893015
6085,164508595.87892994
2,15, 1,15, 0,16, 0.00,60.00,Sunday
213,173002958.16086558
6085,173002958.16086537
2,15, 1,15, 0,17, 0.00,60.00,Sunday
213,209885417.05475116
6085,209885417.05475098