Program Version,EnergyPlus, Version 26.1.0-6f2e40d102, YMD=2026.04.15 00:05
1,5,Environment Title[],Latitude[deg],Longitude[deg],Time Zone[],Elevation[m]
2,8,Day of Simulation[],Month[],Day of Month[],DST Indicator[1=yes 0=no],Hour[],StartMinute[],EndMinute[],DayType
3,5,Cumulative Day of Simulation[],Month[],Day of Month[],DST Indicator[1=yes 0=no],DayType  ! When Daily Meters Requested
4,2,Cumulative Days of Simulation[],Month[]  ! When Monthly Meters Requested
5,1,Cumulative Days of Simulation[] ! When Run Period Meters Requested
6,1,Calendar Year of Simulation[] ! When Annual Meters Requested
213,1,Electricity:Facility [J] !Hourly
5925,1,ElectricityNet:Facility [J] !Hourly
End of Data Dictionary
1,RUNPERIOD 1,  28.11, 112.79,   8.00, 120.00
2,1, 1, 1, 0, 1, 0.00,60.00,Sunday
213,95596061.67724079
5925,95596061.67724079
2,1, 1, 1, 0, 2, 0.00,60.00,Sunday
213,98521729.64094238
5925,98521729.6409424
2,1, 1, 1, 0, 3, 0.00,60.00,Sunday
213,103458501.53167179
5925,103458501.53167179
2,1, 1, 1, 0, 4, 0.00,60.00,Sunday
213,96804810.63385516
5925,96804810.63385516
2,1, 1, 1, 0, 5, 0.00,60.00,Sunday
213,106763585.96623479
5925,106763585.96623479
2,1, 1, 1, 0, 6, 0.00,60.00,Sunday
213,133448007.81820676
5925,133448007.81820673
2,1, 1, 1, 0, 7, 0.00,60.00,Sunday
213,198664770.25810567
5925,198664770.2581057
2,1, 1, 1, 0, 8, 0.00,60.00,Sunday
213,202424961.85409832
5925,202424961.85409835
2,1, 1, 1, 0, 9, 0.00,60.00,Sunday
213,182418024.71366137
5925,182418024.71366134
2,1, 1, 1, 0,10, 0.00,60.00,Sunday
213,162790730.49198583
5925,162790730.49198583
2,1, 1, 1, 0,11, 0.00,60.00,Sunday
213,163533372.84710768
5925,163533372.8471077
2,1, 1, 1, 0,12, 0.00,60.00,Sunday
213,146393650.0342589
5925,146393650.03425887
2,1, 1, 1, 0,13, 0.00,60.00,Sunday
213,135343120.42468902
5925,135343120.424689
2,1, 1, 1, 0,14, 0.00,60.00,Sunday
213,139791416.7431216
5925,139791416.74312156
2,1, 1, 1, 0,15, 0.00,60.00,Sunday
213,120345350.74947417
5925,120345350.74947418
2,1, 1, 1, 0,16, 0.00,60.00,Sunday
213,146507334.00926843
5925,146507334.0092684
2,1, 1, 1, 0,17, 0.00,60.00,Sunday
213,165311897.22244698
5925,165311897.2224472
2,1, 1, 1, 0,18, 0.00,60.00,Sunday
213,205975915.871488
5925,205975915.87148833
2,1, 1, 1, 0,19, 0.00,60.00,Sunday
213,243953369.74111548
5925,243953369.74111584
2,1, 1, 1, 0,20, 0.00,60.00,Sunday
213,227527067.99123585
5925,227527067.99123624
2,1, 1, 1, 0,21, 0.00,60.00,Sunday
213,230637377.1918546
5925,230637377.19185486
2,1, 1, 1, 0,22, 0.00,60.00,Sunday
213,201466940.11553484
5925,201466940.11553508
2,1, 1, 1, 0,23, 0.00,60.00,Sunday
213,172368611.42936003
5925,172368611.42936003
2,1, 1, 1, 0,24, 0.00,60.00,Sunday
213,135223655.15949625
5925,135223655.15949625
2,2, 1, 2, 0, 1, 0.00,60.00,Holiday
213,103455248.58277509
5925,103455248.58277507
2,2, 1, 2, 0, 2, 0.00,60.00,Holiday
213,105822794.41995007
5925,105822794.41995007
2,2, 1, 2, 0, 3, 0.00,60.00,Holiday
213,97583877.30033308
5925,97583877.30033307
2,2, 1, 2, 0, 4, 0.00,60.00,Holiday
213,91561607.77689302
5925,91561607.77689302
2,2, 1, 2, 0, 5, 0.00,60.00,Holiday
213,107792177.94618157
5925,107792177.94618155
2,2, 1, 2, 0, 6, 0.00,60.00,Holiday
213,134496801.55748224
5925,134496801.55748224
2,2, 1, 2, 0, 7, 0.00,60.00,Holiday
213,200452052.51722002
5925,200452052.51722002
2,2, 1, 2, 0, 8, 0.00,60.00,Holiday
213,204514685.61737922
5925,204514685.61737934
2,2, 1, 2, 0, 9, 0.00,60.00,Holiday
213,184057914.7588399
5925,184057914.75883988
2,2, 1, 2, 0,10, 0.00,60.00,Holiday
213,164355354.49011642
5925,164355354.49011642
2,2, 1, 2, 0,11, 0.00,60.00,Holiday
213,165430718.31824008
5925,165430718.31824005
2,2, 1, 2, 0,12, 0.00,60.00,Holiday
213,151862832.25910467
5925,151862832.25910467
2,2, 1, 2, 0,13, 0.00,60.00,Holiday
213,143572856.45584333
5925,143572856.45584333
2,2, 1, 2, 0,14, 0.00,60.00,Holiday
213,128137371.62643602
5925,128137371.62643604
2,2, 1, 2, 0,15, 0.00,60.00,Holiday
213,132964824.64886627
5925,132964824.64886627
2,2, 1, 2, 0,16, 0.00,60.00,Holiday
213,131615499.75785598
5925,131615499.75785598
2,2, 1, 2, 0,17, 0.00,60.00,Holiday
213,172836204.63531438
5925,172836204.63531452
2,2, 1, 2, 0,18, 0.00,60.00,Holiday
213,203111648.2245885
5925,203111648.22458884
2,2, 1, 2, 0,19, 0.00,60.00,Holiday
213,245025068.57283872
5925,245025068.57283905
2,2, 1, 2, 0,20, 0.00,60.00,Holiday
213,235213026.80178046
5925,235213026.80178082
2,2, 1, 2, 0,21, 0.00,60.00,Holiday
213,221704514.8731977
5925,221704514.87319803
2,2, 1, 2, 0,22, 0.00,60.00,Holiday
213,199150927.06304994
5925,199150927.06305015
2,2, 1, 2, 0,23, 0.00,60.00,Holiday
213,173389196.5069218
5925,173389196.5069218
2,2, 1, 2, 0,24, 0.00,60.00,Holiday
213,136304557.56347397
5925,136304557.56347394
2,3, 1, 3, 0, 1, 0.00,60.00,Tuesday
213,117664574.47447294
5925,117664574.47447294
2,3, 1, 3, 0, 2, 0.00,60.00,Tuesday
213,100929367.70418681
5925,100929367.70418683
2,3, 1, 3, 0, 3, 0.00,60.00,Tuesday
213,92646559.75608855
5925,92646559.75608857
2,3, 1, 3, 0, 4, 0.00,60.00,Tuesday
213,105124305.00988589
5925,105124305.00988589
2,3, 1, 3, 0, 5, 0.00,60.00,Tuesday
213,102978485.68215519
5925,102978485.68215515
2,3, 1, 3, 0, 6, 0.00,60.00,Tuesday
213,137165156.7204711
5925,137165156.7204711
2,3, 1, 3, 0, 7, 0.00,60.00,Tuesday
213,202589435.03327945
5925,202589435.03327942
2,3, 1, 3, 0, 8, 0.00,60.00,Tuesday
213,198296140.51969358
5925,198296140.51969364
2,3, 1, 3, 0, 9, 0.00,60.00,Tuesday
213,197073489.14838248
5925,197073489.14838254
2,3, 1, 3, 0,10, 0.00,60.00,Tuesday
213,175416256.4507703
5925,175416256.4507703
2,3, 1, 3, 0,11, 0.00,60.00,Tuesday
213,164674737.9121673
5925,164674737.9121673
2,3, 1, 3, 0,12, 0.00,60.00,Tuesday
213,149809031.0213138
5925,149809031.02131376
2,3, 1, 3, 0,13, 0.00,60.00,Tuesday
213,148127751.46667305
5925,148127751.46667302
2,3, 1, 3, 0,14, 0.00,60.00,Tuesday
213,133182546.3519179
5925,133182546.3519179
2,3, 1, 3, 0,15, 0.00,60.00,Tuesday
213,145890564.94188973
5925,145890564.94188967
2,3, 1, 3, 0,16, 0.00,60.00,Tuesday
213,150998292.5357713
5925,150998292.53577128
2,3, 1, 3, 0,17, 0.00,60.00,Tuesday
213,158201884.3679329
5925,158201884.36793303
2,3, 1, 3, 0,18, 0.00,60.00,Tuesday
213,218945726.8270718
5925,218945726.82707208
2,3, 1, 3, 0,19, 0.00,60.00,Tuesday
213,232671285.95374373
5925,232671285.9537441
2,3, 1, 3, 0,20, 0.00,60.00,Tuesday
213,243541152.7966005
5925,243541152.79660088
2,3, 1, 3, 0,21, 0.00,60.00,Tuesday
213,219169880.24377355
5925,219169880.24377385
2,3, 1, 3, 0,22, 0.00,60.00,Tuesday
213,203073462.65801603
5925,203073462.65801623
2,3, 1, 3, 0,23, 0.00,60.00,Tuesday
213,173823634.7227015
5925,173823634.7227015
2,3, 1, 3, 0,24, 0.00,60.00,Tuesday
213,135250598.7147938
5925,135250598.71479383
2,4, 1, 4, 0, 1, 0.00,60.00,Wednesday
213,109679115.35026039
5925,109679115.35026038
2,4, 1, 4, 0, 2, 0.00,60.00,Wednesday
213,101079133.01501247
5925,101079133.01501247
2,4, 1, 4, 0, 3, 0.00,60.00,Wednesday
213,107297493.52640435
5925,107297493.52640435
2,4, 1, 4, 0, 4, 0.00,60.00,Wednesday
213,100504763.1425397
5925,100504763.1425397
2,4, 1, 4, 0, 5, 0.00,60.00,Wednesday
213,96386680.14883983
5925,96386680.14883985
2,4, 1, 4, 0, 6, 0.00,60.00,Wednesday
213,136574942.36966467
5925,136574942.36966464
2,4, 1, 4, 0, 7, 0.00,60.00,Wednesday
213,201861889.20183468
5925,201861889.2018347
2,4, 1, 4, 0, 8, 0.00,60.00,Wednesday
213,206153788.13762748
5925,206153788.1376276
2,4, 1, 4, 0, 9, 0.00,60.00,Wednesday
213,189932121.72865367
5925,189932121.72865376
2,4, 1, 4, 0,10, 0.00,60.00,Wednesday
213,183276908.0405492
5925,183276908.04054916
2,4, 1, 4, 0,11, 0.00,60.00,Wednesday
213,156200280.54028687
5925,156200280.54028687
2,4, 1, 4, 0,12, 0.00,60.00,Wednesday
213,154201649.3319294
5925,154201649.33192936
2,4, 1, 4, 0,13, 0.00,60.00,Wednesday
213,144175040.60401437
5925,144175040.60401437
2,4, 1, 4, 0,14, 0.00,60.00,Wednesday
213,142438282.73665085
5925,142438282.73665088
2,4, 1, 4, 0,15, 0.00,60.00,Wednesday
213,123207966.30122004
5925,123207966.30122004
2,4, 1, 4, 0,16, 0.00,60.00,Wednesday
213,148775910.3063193
5925,148775910.30631927
2,4, 1, 4, 0,17, 0.00,60.00,Wednesday
213,175456694.53891352
5925,175456694.53891367
2,4, 1, 4, 0,18, 0.00,60.00,Wednesday
213,203589188.5539518
5925,203589188.55395222
2,4, 1, 4, 0,19, 0.00,60.00,Wednesday
213,244456547.5285623
5925,244456547.52856266
2,4, 1, 4, 0,20, 0.00,60.00,Wednesday
213,219393546.95103526
5925,219393546.95103562
2,4, 1, 4, 0,21, 0.00,60.00,Wednesday
213,237211226.8938282
5925,237211226.8938285
2,4, 1, 4, 0,22, 0.00,60.00,Wednesday
213,196223749.7882724
5925,196223749.78827262
2,4, 1, 4, 0,23, 0.00,60.00,Wednesday
213,158458525.33285522
5925,158458525.33285522
2,4, 1, 4, 0,24, 0.00,60.00,Wednesday
213,147813455.1873611
5925,147813455.18736106
2,5, 1, 5, 0, 1, 0.00,60.00,Thursday
213,102926610.54912627
5925,102926610.54912625
2,5, 1, 5, 0, 2, 0.00,60.00,Thursday
213,112342848.5426552
5925,112342848.5426552
2,5, 1, 5, 0, 3, 0.00,60.00,Thursday
213,91792799.47681476
5925,91792799.47681478
2,5, 1, 5, 0, 4, 0.00,60.00,Thursday
213,90953360.87592354
5925,90953360.87592354
2,5, 1, 5, 0, 5, 0.00,60.00,Thursday
213,113919647.0974533
5925,113919647.09745325
2,5, 1, 5, 0, 6, 0.00,60.00,Thursday
213,135087027.32406962
5925,135087027.32406962
2,5, 1, 5, 0, 7, 0.00,60.00,Thursday
213,201381660.78224176
5925,201381660.78224173
2,5, 1, 5, 0, 8, 0.00,60.00,Thursday
213,197542743.34324282
5925,197542743.3432429
2,5, 1, 5, 0, 9, 0.00,60.00,Thursday
213,195137921.88555604
5925,195137921.88555604
2,5, 1, 5, 0,10, 0.00,60.00,Thursday
213,157757928.87862527
5925,157757928.8786253
2,5, 1, 5, 0,11, 0.00,60.00,Thursday
213,172056954.54221562
5925,172056954.54221562
2,5, 1, 5, 0,12, 0.00,60.00,Thursday
213,142309661.0329108
5925,142309661.0329108
2,5, 1, 5, 0,13, 0.00,60.00,Thursday
213,133951585.15403467
5925,133951585.15403466
2,5, 1, 5, 0,14, 0.00,60.00,Thursday
213,130161390.8060084
5925,130161390.8060084
2,5, 1, 5, 0,15, 0.00,60.00,Thursday
213,135413325.05448395
5925,135413325.05448395
2,5, 1, 5, 0,16, 0.00,60.00,Thursday
213,126620291.23604017
5925,126620291.23604017
2,5, 1, 5, 0,17, 0.00,60.00,Thursday
213,161402506.13011083
5925,161402506.130111
2,5, 1, 5, 0,18, 0.00,60.00,Thursday
213,197775419.54261616
5925,197775419.54261646
2,5, 1, 5, 0,19, 0.00,60.00,Thursday
213,240174451.55987552
5925,240174451.5598758
2,5, 1, 5, 0,20, 0.00,60.00,Thursday
213,237825585.58875299
5925,237825585.58875334
2,5, 1, 5, 0,21, 0.00,60.00,Thursday
213,214089052.81647575
5925,214089052.81647605
2,5, 1, 5, 0,22, 0.00,60.00,Thursday
213,198462666.32252765
5925,198462666.3225279
2,5, 1, 5, 0,23, 0.00,60.00,Thursday
213,169264698.79465458
5925,169264698.79465455
2,5, 1, 5, 0,24, 0.00,60.00,Thursday
213,130510470.91837037
5925,130510470.91837037
2,6, 1, 6, 0, 1, 0.00,60.00,Friday
213,105518149.17900635
5925,105518149.17900634
2,6, 1, 6, 0, 2, 0.00,60.00,Friday
213,95854457.960896
5925,95854457.960896
2,6, 1, 6, 0, 3, 0.00,60.00,Friday
213,95458475.1324296
5925,95458475.13242961
2,6, 1, 6, 0, 4, 0.00,60.00,Friday
213,101081367.60195303
5925,101081367.60195303
2,6, 1, 6, 0, 5, 0.00,60.00,Friday
213,97920800.94242555
5925,97920800.94242553
2,6, 1, 6, 0, 6, 0.00,60.00,Friday
213,125464309.05119412
5925,125464309.05119415
2,6, 1, 6, 0, 7, 0.00,60.00,Friday
213,203064307.28909647
5925,203064307.28909642
2,6, 1, 6, 0, 8, 0.00,60.00,Friday
213,195909659.0066951
5925,195909659.0066951
2,6, 1, 6, 0, 9, 0.00,60.00,Friday
213,183503095.60316312
5925,183503095.60316312
2,6, 1, 6, 0,10, 0.00,60.00,Friday
213,173953691.75141197
5925,173953691.751412
2,6, 1, 6, 0,11, 0.00,60.00,Friday
213,144511365.9459276
5925,144511365.94592762
2,6, 1, 6, 0,12, 0.00,60.00,Friday
213,142507929.41002896
5925,142507929.41002896
2,6, 1, 6, 0,13, 0.00,60.00,Friday
213,132941207.65563424
5925,132941207.65563425
2,6, 1, 6, 0,14, 0.00,60.00,Friday
213,119785921.07142432
5925,119785921.07142432
2,6, 1, 6, 0,15, 0.00,60.00,Friday
213,132814985.04339992
5925,132814985.0433999
2,6, 1, 6, 0,16, 0.00,60.00,Friday
213,133519857.06396782
5925,133519857.0639678
2,6, 1, 6, 0,17, 0.00,60.00,Friday
213,144615762.6885335
5925,144615762.68853354
2,6, 1, 6, 0,18, 0.00,60.00,Friday
213,204749949.49925148
5925,204749949.49925187
2,6, 1, 6, 0,19, 0.00,60.00,Friday
213,222038139.73725393
5925,222038139.73725426
2,6, 1, 6, 0,20, 0.00,60.00,Friday
213,232110228.05820253
5925,232110228.0582028
2,6, 1, 6, 0,21, 0.00,60.00,Friday
213,212439938.7180379
5925,212439938.7180382
2,6, 1, 6, 0,22, 0.00,60.00,Friday
213,188704104.4275014
5925,188704104.4275016
2,6, 1, 6, 0,23, 0.00,60.00,Friday
213,175530594.26674566
5925,175530594.26674566
2,6, 1, 6, 0,24, 0.00,60.00,Friday
213,130749310.21005225
5925,130749310.21005228
2,7, 1, 7, 0, 1, 0.00,60.00,Saturday
213,107002074.64271156
5925,107002074.64271155
2,7, 1, 7, 0, 2, 0.00,60.00,Saturday
213,99665595.13263853
5925,99665595.13263854
2,7, 1, 7, 0, 3, 0.00,60.00,Saturday
213,105035326.22657622
5925,105035326.22657622
2,7, 1, 7, 0, 4, 0.00,60.00,Saturday
213,98516144.4815262
5925,98516144.4815262
2,7, 1, 7, 0, 5, 0.00,60.00,Saturday
213,95662013.148161
5925,95662013.14816096
2,7, 1, 7, 0, 6, 0.00,60.00,Saturday
213,145725982.49839836
5925,145725982.4983984
2,7, 1, 7, 0, 7, 0.00,60.00,Saturday
213,191781026.46348554
5925,191781026.46348557
2,7, 1, 7, 0, 8, 0.00,60.00,Saturday
213,210772743.3635171
5925,210772743.36351722
2,7, 1, 7, 0, 9, 0.00,60.00,Saturday
213,178096158.83478144
5925,178096158.83478144
2,7, 1, 7, 0,10, 0.00,60.00,Saturday
213,174331132.04236495
5925,174331132.04236493
2,7, 1, 7, 0,11, 0.00,60.00,Saturday
213,147420799.97540516
5925,147420799.97540516
2,7, 1, 7, 0,12, 0.00,60.00,Saturday
213,145622005.21602356
5925,145622005.21602356
2,7, 1, 7, 0,13, 0.00,60.00,Saturday
213,125487527.53904036
5925,125487527.53904033
2,7, 1, 7, 0,14, 0.00,60.00,Saturday
213,128712615.1441197
5925,128712615.1441197
2,7, 1, 7, 0,15, 0.00,60.00,Saturday
213,106455144.67714474
5925,106455144.67714474
2,7, 1, 7, 0,16, 0.00,60.00,Saturday
213,132057270.44197786
5925,132057270.44197783
2,7, 1, 7, 0,17, 0.00,60.00,Saturday
213,161078931.0166337
5925,161078931.0166337
2,7, 1, 7, 0,18, 0.00,60.00,Saturday
213,195178948.27474838
5925,195178948.27474874
2,7, 1, 7, 0,19, 0.00,60.00,Saturday
213,237952847.48302752
5925,237952847.48302782
2,7, 1, 7, 0,20, 0.00,60.00,Saturday
213,215681565.04136965
5925,215681565.04137003
2,7, 1, 7, 0,21, 0.00,60.00,Saturday
213,232324784.1850602
5925,232324784.18506053
2,7, 1, 7, 0,22, 0.00,60.00,Saturday
213,190766687.82999882
5925,190766687.82999903
2,7, 1, 7, 0,23, 0.00,60.00,Saturday
213,169234804.2172993
5925,169234804.2172993
2,7, 1, 7, 0,24, 0.00,60.00,Saturday
213,131340751.80335385
5925,131340751.80335383
2,8, 1, 8, 0, 1, 0.00,60.00,Sunday
213,100269460.2854794
5925,100269460.28547938
2,8, 1, 8, 0, 2, 0.00,60.00,Sunday
213,111598314.99083537
5925,111598314.99083537
2,8, 1, 8, 0, 3, 0.00,60.00,Sunday
213,91113670.3034255
5925,91113670.30342552
2,8, 1, 8, 0, 4, 0.00,60.00,Sunday
213,90966855.63987876
5925,90966855.63987876
2,8, 1, 8, 0, 5, 0.00,60.00,Sunday
213,115162171.37078896
5925,115162171.37078895
2,8, 1, 8, 0, 6, 0.00,60.00,Sunday
213,135091379.9371719
5925,135091379.93717188
2,8, 1, 8, 0, 7, 0.00,60.00,Sunday
213,201113808.24685386
5925,201113808.24685383
2,8, 1, 8, 0, 8, 0.00,60.00,Sunday
213,200986132.85444826
5925,200986132.85444838
2,8, 1, 8, 0, 9, 0.00,60.00,Sunday
213,187384200.48363212
5925,187384200.4836321
2,8, 1, 8, 0,10, 0.00,60.00,Sunday
213,167602726.28728312
5925,167602726.28728312
2,8, 1, 8, 0,11, 0.00,60.00,Sunday
213,147351419.1169159
5925,147351419.1169159
2,8, 1, 8, 0,12, 0.00,60.00,Sunday
213,136061978.95115754
5925,136061978.95115754
2,8, 1, 8, 0,13, 0.00,60.00,Sunday
213,131981468.51629087
5925,131981468.51629086
2,8, 1, 8, 0,14, 0.00,60.00,Sunday
213,113904938.42592365
5925,113904938.42592365
2,8, 1, 8, 0,15, 0.00,60.00,Sunday
213,120142506.29433592
5925,120142506.29433592
2,8, 1, 8, 0,16, 0.00,60.00,Sunday
213,120040090.27419943
5925,120040090.27419943
2,8, 1, 8, 0,17, 0.00,60.00,Sunday
213,149079069.3327339
5925,149079069.33273393
2,8, 1, 8, 0,18, 0.00,60.00,Sunday
213,206645109.34519002
5925,206645109.34519035
2,8, 1, 8, 0,19, 0.00,60.00,Sunday
213,218632598.6619908
5925,218632598.66199112
2,8, 1, 8, 0,20, 0.00,60.00,Sunday
213,232932653.1677049
5925,232932653.16770527
2,8, 1, 8, 0,21, 0.00,60.00,Sunday
213,210149683.0177446
5925,210149683.01774493
2,8, 1, 8, 0,22, 0.00,60.00,Sunday
213,195554227.8002904
5925,195554227.8002906
2,8, 1, 8, 0,23, 0.00,60.00,Sunday
213,167316934.19683796
5925,167316934.19683796
2,8, 1, 8, 0,24, 0.00,60.00,Sunday
213,129630499.6105604
5925,129630499.6105604
2,9, 1, 9, 0, 1, 0.00,60.00,Monday
213,112005452.56637287
5925,112005452.56637284
2,9, 1, 9, 0, 2, 0.00,60.00,Monday
213,91104916.5584615
5925,91104916.5584615
2,9, 1, 9, 0, 3, 0.00,60.00,Monday
213,107121393.09797205
5925,107121393.09797205
2,9, 1, 9, 0, 4, 0.00,60.00,Monday
213,93383770.00880149
5925,93383770.00880146
2,9, 1, 9, 0, 5, 0.00,60.00,Monday
213,101924494.21719807
5925,101924494.21719807
2,9, 1, 9, 0, 6, 0.00,60.00,Monday
213,134898358.12999073
5925,134898358.12999073
2,9, 1, 9, 0, 7, 0.00,60.00,Monday
213,202850347.68636894
5925,202850347.68636894
2,9, 1, 9, 0, 8, 0.00,60.00,Monday
213,199336241.98435098
5925,199336241.98435113
2,9, 1, 9, 0, 9, 0.00,60.00,Monday
213,195209223.76156095
5925,195209223.761561
2,9, 1, 9, 0,10, 0.00,60.00,Monday
213,169980590.88929382
5925,169980590.88929382
2,9, 1, 9, 0,11, 0.00,60.00,Monday
213,153764054.76764545
5925,153764054.76764545
2,9, 1, 9, 0,12, 0.00,60.00,Monday
213,134397344.4989864
5925,134397344.49898636
2,9, 1, 9, 0,13, 0.00,60.00,Monday
213,140456392.4953649
5925,140456392.4953649
2,9, 1, 9, 0,14, 0.00,60.00,Monday
213,133803478.67686296
5925,133803478.67686298
2,9, 1, 9, 0,15, 0.00,60.00,Monday
213,122116221.45188127
5925,122116221.45188127
2,9, 1, 9, 0,16, 0.00,60.00,Monday
213,142550837.44999248
5925,142550837.44999245
2,9, 1, 9, 0,17, 0.00,60.00,Monday
213,153225490.28632036
5925,153225490.28632033
2,9, 1, 9, 0,18, 0.00,60.00,Monday
213,194079071.05654487
5925,194079071.0565452
2,9, 1, 9, 0,19, 0.00,60.00,Monday
213,227330353.34602273
5925,227330353.34602302
2,9, 1, 9, 0,20, 0.00,60.00,Monday
213,221525778.28969175
5925,221525778.2896921
2,9, 1, 9, 0,21, 0.00,60.00,Monday
213,219024216.10439953
5925,219024216.10439992
2,9, 1, 9, 0,22, 0.00,60.00,Monday
213,194349628.98848438
5925,194349628.98848456
2,9, 1, 9, 0,23, 0.00,60.00,Monday
213,165747893.71439058
5925,165747893.71439058
2,9, 1, 9, 0,24, 0.00,60.00,Monday
213,130054641.53490844
5925,130054641.53490846
2,10, 1,10, 0, 1, 0.00,60.00,Tuesday
213,103792552.26235875
5925,103792552.26235871
2,10, 1,10, 0, 2, 0.00,60.00,Tuesday
213,100767072.5463878
5925,100767072.5463878
2,10, 1,10, 0, 3, 0.00,60.00,Tuesday
213,99859415.00992352
5925,99859415.00992352
2,10, 1,10, 0, 4, 0.00,60.00,Tuesday
213,90946362.98176046
5925,90946362.98176044
2,10, 1,10, 0, 5, 0.00,60.00,Tuesday
213,111843425.47399653
5925,111843425.47399653
2,10, 1,10, 0, 6, 0.00,60.00,Tuesday
213,134066229.6559059
5925,134066229.6559059
2,10, 1,10, 0, 7, 0.00,60.00,Tuesday
213,203466876.1052777
5925,203466876.1052777
2,10, 1,10, 0, 8, 0.00,60.00,Tuesday
213,200570846.09103802
5925,200570846.09103808
2,10, 1,10, 0, 9, 0.00,60.00,Tuesday
213,191501324.98440197
5925,191501324.98440203
2,10, 1,10, 0,10, 0.00,60.00,Tuesday
213,166038980.7204471
5925,166038980.7204471
2,10, 1,10, 0,11, 0.00,60.00,Tuesday
213,157996771.95187342
5925,157996771.95187342
2,10, 1,10, 0,12, 0.00,60.00,Tuesday
213,136686164.4317127
5925,136686164.4317127
2,10, 1,10, 0,13, 0.00,60.00,Tuesday
213,134853528.49318203
5925,134853528.493182
2,10, 1,10, 0,14, 0.00,60.00,Tuesday
213,123202217.58791223
5925,123202217.58791223
2,10, 1,10, 0,15, 0.00,60.00,Tuesday
213,132666493.32812274
5925,132666493.3281227
2,10, 1,10, 0,16, 0.00,60.00,Tuesday
213,132749111.91225734
5925,132749111.91225736
2,10, 1,10, 0,17, 0.00,60.00,Tuesday
213,150422612.95352358
5925,150422612.95352358
2,10, 1,10, 0,18, 0.00,60.00,Tuesday
213,197144360.72342554
5925,197144360.72342587
2,10, 1,10, 0,19, 0.00,60.00,Tuesday
213,219117505.44944876
5925,219117505.4494491
2,10, 1,10, 0,20, 0.00,60.00,Tuesday
213,223912863.83910462
5925,223912863.839105
2,10, 1,10, 0,21, 0.00,60.00,Tuesday
213,209198535.83325437
5925,209198535.8332547
2,10, 1,10, 0,22, 0.00,60.00,Tuesday
213,189556720.55726156
5925,189556720.55726177
2,10, 1,10, 0,23, 0.00,60.00,Tuesday
213,163609540.5375594
5925,163609540.53755942
2,10, 1,10, 0,24, 0.00,60.00,Tuesday
213,123688190.14165145
5925,123688190.14165145
2,11, 1,11, 0, 1, 0.00,60.00,Wednesday
213,98448812.66324465
5925,98448812.66324463
2,11, 1,11, 0, 2, 0.00,60.00,Wednesday
213,90246390.42144002
5925,90246390.42144002
2,11, 1,11, 0, 3, 0.00,60.00,Wednesday
213,95698452.86808665
5925,95698452.86808667
2,11, 1,11, 0, 4, 0.00,60.00,Wednesday
213,90187630.12113307
5925,90187630.12113307
2,11, 1,11, 0, 5, 0.00,60.00,Wednesday
213,90665268.8289831
5925,90665268.82898308
2,11, 1,11, 0, 6, 0.00,60.00,Wednesday
213,133429961.09193121
5925,133429961.0919312
2,11, 1,11, 0, 7, 0.00,60.00,Wednesday
213,186929133.2771783
5925,186929133.27717832
2,11, 1,11, 0, 8, 0.00,60.00,Wednesday
213,195567393.0130444
5925,195567393.01304436
2,11, 1,11, 0, 9, 0.00,60.00,Wednesday
213,182354734.9704045
5925,182354734.97040454
2,11, 1,11, 0,10, 0.00,60.00,Wednesday
213,170865364.91682154
5925,170865364.9168216
2,11, 1,11, 0,11, 0.00,60.00,Wednesday
213,155245473.86505237
5925,155245473.86505237
2,11, 1,11, 0,12, 0.00,60.00,Wednesday
213,146937954.13408875
5925,146937954.13408875
2,11, 1,11, 0,13, 0.00,60.00,Wednesday
213,137273820.91860816
5925,137273820.91860816
2,11, 1,11, 0,14, 0.00,60.00,Wednesday
213,129365618.71688268
5925,129365618.71688272
2,11, 1,11, 0,15, 0.00,60.00,Wednesday
213,128868131.57492492
5925,128868131.57492492
2,11, 1,11, 0,16, 0.00,60.00,Wednesday
213,142953391.9382136
5925,142953391.93821356
2,11, 1,11, 0,17, 0.00,60.00,Wednesday
213,162826746.95394614
5925,162826746.95394632
2,11, 1,11, 0,18, 0.00,60.00,Wednesday
213,203471017.9419817
5925,203471017.94198206
2,11, 1,11, 0,19, 0.00,60.00,Wednesday
213,236681917.45116568
5925,236681917.45116603
2,11, 1,11, 0,20, 0.00,60.00,Wednesday
213,233568122.4666396
5925,233568122.4666399
2,11, 1,11, 0,21, 0.00,60.00,Wednesday
213,218287863.76373005
5925,218287863.76373035
2,11, 1,11, 0,22, 0.00,60.00,Wednesday
213,195779342.10518897
5925,195779342.10518917
2,11, 1,11, 0,23, 0.00,60.00,Wednesday
213,171989721.25339347
5925,171989721.2533935
2,11, 1,11, 0,24, 0.00,60.00,Wednesday
213,131845037.17123987
5925,131845037.17123985
2,12, 1,12, 0, 1, 0.00,60.00,Thursday
213,100626649.52451366
5925,100626649.52451365
2,12, 1,12, 0, 2, 0.00,60.00,Thursday
213,104480534.07487512
5925,104480534.07487512
2,12, 1,12, 0, 3, 0.00,60.00,Thursday
213,97268386.94451755
5925,97268386.94451755
2,12, 1,12, 0, 4, 0.00,60.00,Thursday
213,100092666.05910373
5925,100092666.05910371
2,12, 1,12, 0, 5, 0.00,60.00,Thursday
213,103058793.91687159
5925,103058793.9168716
2,12, 1,12, 0, 6, 0.00,60.00,Thursday
213,134769651.19413316
5925,134769651.19413316
2,12, 1,12, 0, 7, 0.00,60.00,Thursday
213,200298813.16841918
5925,200298813.16841918
2,12, 1,12, 0, 8, 0.00,60.00,Thursday
213,200611795.0268821
5925,200611795.02688223
2,12, 1,12, 0, 9, 0.00,60.00,Thursday
213,192573493.28921637
5925,192573493.28921643
2,12, 1,12, 0,10, 0.00,60.00,Thursday
213,172100481.90824997
5925,172100481.90824997
2,12, 1,12, 0,11, 0.00,60.00,Thursday
213,162010160.81790817
5925,162010160.81790817
2,12, 1,12, 0,12, 0.00,60.00,Thursday
213,150098870.06334388
5925,150098870.06334388
2,12, 1,12, 0,13, 0.00,60.00,Thursday
213,144319151.97955662
5925,144319151.97955662
2,12, 1,12, 0,14, 0.00,60.00,Thursday
213,136481546.96754387
5925,136481546.96754387
2,12, 1,12, 0,15, 0.00,60.00,Thursday
213,132761480.47205642
5925,132761480.47205642
2,12, 1,12, 0,16, 0.00,60.00,Thursday
213,140958495.1558847
5925,140958495.1558847
2,12, 1,12, 0,17, 0.00,60.00,Thursday
213,167407562.90153587
5925,167407562.90153605
2,12, 1,12, 0,18, 0.00,60.00,Thursday
213,210469923.1700939
5925,210469923.1700942
2,12, 1,12, 0,19, 0.00,60.00,Thursday
213,236431614.9770894
5925,236431614.9770897
2,12, 1,12, 0,20, 0.00,60.00,Thursday
213,232774141.98029524
5925,232774141.98029554
2,12, 1,12, 0,21, 0.00,60.00,Thursday
213,223635350.58435085
5925,223635350.58435118
2,12, 1,12, 0,22, 0.00,60.00,Thursday
213,199527996.6897027
5925,199527996.68970293
2,12, 1,12, 0,23, 0.00,60.00,Thursday
213,166012603.35689747
5925,166012603.35689744
2,12, 1,12, 0,24, 0.00,60.00,Thursday
213,139787046.44960913
5925,139787046.44960913
2,13, 1,13, 0, 1, 0.00,60.00,Friday
213,106124021.19209619
5925,106124021.19209619
2,13, 1,13, 0, 2, 0.00,60.00,Friday
213,98771131.3326338
5925,98771131.3326338
2,13, 1,13, 0, 3, 0.00,60.00,Friday
213,103290581.74118811
5925,103290581.74118811
2,13, 1,13, 0, 4, 0.00,60.00,Friday
213,99086487.79203701
5925,99086487.79203698
2,13, 1,13, 0, 5, 0.00,60.00,Friday
213,105203012.74764404
5925,105203012.74764402
2,13, 1,13, 0, 6, 0.00,60.00,Friday
213,138469045.99845245
5925,138469045.99845245
2,13, 1,13, 0, 7, 0.00,60.00,Friday
213,198560937.4603755
5925,198560937.46037552
2,13, 1,13, 0, 8, 0.00,60.00,Friday
213,202944596.741273
5925,202944596.7412731
2,13, 1,13, 0, 9, 0.00,60.00,Friday
213,191119072.00277042
5925,191119072.00277048
2,13, 1,13, 0,10, 0.00,60.00,Friday
213,173345556.36599874
5925,173345556.36599874
2,13, 1,13, 0,11, 0.00,60.00,Friday
213,164443841.01555243
5925,164443841.01555246
2,13, 1,13, 0,12, 0.00,60.00,Friday
213,152533236.4759224
5925,152533236.4759224
2,13, 1,13, 0,13, 0.00,60.00,Friday
213,140924277.44334573
5925,140924277.44334573
2,13, 1,13, 0,14, 0.00,60.00,Friday
213,136063445.06145203
5925,136063445.06145206
2,13, 1,13, 0,15, 0.00,60.00,Friday
213,132455738.32499462
5925,132455738.32499464
2,13, 1,13, 0,16, 0.00,60.00,Friday
213,139144057.9608871
5925,139144057.96088713
2,13, 1,13, 0,17, 0.00,60.00,Friday
213,168335433.09421706
5925,168335433.09421727
2,13, 1,13, 0,18, 0.00,60.00,Friday
213,207918740.66789636
5925,207918740.66789666
2,13, 1,13, 0,19, 0.00,60.00,Friday
213,239994172.56935203
5925,239994172.56935233
2,13, 1,13, 0,20, 0.00,60.00,Friday
213,234052668.20811355
5925,234052668.2081139
2,13, 1,13, 0,21, 0.00,60.00,Friday
213,223520697.4230414
5925,223520697.42304176
2,13, 1,13, 0,22, 0.00,60.00,Friday
213,199315305.71857336
5925,199315305.71857357
2,13, 1,13, 0,23, 0.00,60.00,Friday
213,170321946.93775335
5925,170321946.93775338
2,13, 1,13, 0,24, 0.00,60.00,Friday
213,135044263.67328537
5925,135044263.67328537
2,14, 1,14, 0, 1, 0.00,60.00,Saturday
213,110364647.15092391
5925,110364647.15092391
2,14, 1,14, 0, 2, 0.00,60.00,Saturday
213,101771076.2637194
5925,101771076.2637194
2,14, 1,14, 0, 3, 0.00,60.00,Saturday
213,93172717.94231303
5925,93172717.94231303
2,14, 1,14, 0, 4, 0.00,60.00,Saturday
213,105529908.18102494
5925,105529908.18102494
2,14, 1,14, 0, 5, 0.00,60.00,Saturday
213,102321541.05593592
5925,102321541.05593592
2,14, 1,14, 0, 6, 0.00,60.00,Saturday
213,136220849.30253777
5925,136220849.30253774
2,14, 1,14, 0, 7, 0.00,60.00,Saturday
213,201551633.83234385
5925,201551633.83234385
2,14, 1,14, 0, 8, 0.00,60.00,Saturday
213,204477896.81743604
5925,204477896.81743613
2,14, 1,14, 0, 9, 0.00,60.00,Saturday
213,185180369.97841692
5925,185180369.97841695
2,14, 1,14, 0,10, 0.00,60.00,Saturday
213,174332810.34069926
5925,174332810.34069926
2,14, 1,14, 0,11, 0.00,60.00,Saturday
213,153277484.37703577
5925,153277484.37703577
2,14, 1,14, 0,12, 0.00,60.00,Saturday
213,151212206.41815695
5925,151212206.41815698
2,14, 1,14, 0,13, 0.00,60.00,Saturday
213,142354288.78944337
5925,142354288.78944337
2,14, 1,14, 0,14, 0.00,60.00,Saturday
213,134782998.24508762
5925,134782998.2450876
2,14, 1,14, 0,15, 0.00,60.00,Saturday
213,126448857.13316444
5925,126448857.13316445
2,14, 1,14, 0,16, 0.00,60.00,Saturday
213,141694908.15068775
5925,141694908.15068775
2,14, 1,14, 0,17, 0.00,60.00,Saturday
213,168371180.57693195
5925,168371180.57693213
2,14, 1,14, 0,18, 0.00,60.00,Saturday
213,207573882.11109924
5925,207573882.1110996
2,14, 1,14, 0,19, 0.00,60.00,Saturday
213,241737646.5745849
5925,241737646.5745852
2,14, 1,14, 0,20, 0.00,60.00,Saturday
213,227822968.8950663
5925,227822968.8950666
2,14, 1,14, 0,21, 0.00,60.00,Saturday
213,232021182.82978055
5925,232021182.82978088
2,14, 1,14, 0,22, 0.00,60.00,Saturday
213,198378881.01603225
5925,198378881.01603243
2,14, 1,14, 0,23, 0.00,60.00,Saturday
213,172507961.00064903
5925,172507961.00064903
2,14, 1,14, 0,24, 0.00,60.00,Saturday
213,132994312.22681189
5925,132994312.22681186
2,15, 1,15, 0, 1, 0.00,60.00,Sunday
213,105414767.73676844
5925,105414767.73676841
2,15, 1,15, 0, 2, 0.00,60.00,Sunday
213,105419145.15476747
5925,105419145.15476747
2,15, 1,15, 0, 3, 0.00,60.00,Sunday
213,98468518.89754148
5925,98468518.89754146
2,15, 1,15, 0, 4, 0.00,60.00,Sunday
213,96028949.83516535
5925,96028949.83516535
2,15, 1,15, 0, 5, 0.00,60.00,Sunday
213,104975414.10705449
5925,104975414.1070545
2,15, 1,15, 0, 6, 0.00,60.00,Sunday
213,135357525.00403246
5925,135357525.0040325
2,15, 1,15, 0, 7, 0.00,60.00,Sunday
213,200408030.75001365
5925,200408030.75001365
2,15, 1,15, 0, 8, 0.00,60.00,Sunday
213,202025759.35293543
5925,202025759.3529355
2,15, 1,15, 0, 9, 0.00,60.00,Sunday
213,185570010.28785494
5925,185570010.28785494
2,15, 1,15, 0,10, 0.00,60.00,Sunday
213,176332667.6518168
5925,176332667.6518168
2,15, 1,15, 0,11, 0.00,60.00,Sunday
213,160817759.77838945
5925,160817759.77838945
2,15, 1,15, 0,12, 0.00,60.00,Sunday
213,149006514.99775258
5925,149006514.99775255
2,15, 1,15, 0,13, 0.00,60.00,Sunday
213,139547391.5936223
5925,139547391.59362227
2,15, 1,15, 0,14, 0.00,60.00,Sunday
213,130972417.37335578
5925,130972417.37335578
2,15, 1,15, 0,15, 0.00,60.00,Sunday
213,136468660.63001359
5925,136468660.63001359
2,15, 1,15, 0,16, 0.00,60.00,Sunday
213,139424742.83153152
5925,139424742.83153152
2,15, 1,15, 0,17, 0.00,60.00,Sunday
213,163200652.38382077