Program Version,EnergyPlus, Version 26.1.0-6f2e40d102, YMD=2026.04.14 20:36
1,5,Environment Title[],Latitude[deg],Longitude[deg],Time Zone[],Elevation[m]
2,8,Day of Simulation[],Month[],Day of Month[],DST Indicator[1=yes 0=no],Hour[],StartMinute[],EndMinute[],DayType
3,5,Cumulative Day of Simulation[],Month[],Day of Month[],DST Indicator[1=yes 0=no],DayType  ! When Daily Meters Requested
4,2,Cumulative Days of Simulation[],Month[]  ! When Monthly Meters Requested
5,1,Cumulative Days of Simulation[] ! When Run Period Meters Requested
6,1,Calendar Year of Simulation[] ! When Annual Meters Requested
213,1,Electricity:Facility [J] !Hourly
6085,1,ElectricityNet:Facility [J] !Hourly
End of Data Dictionary
1,RUNPERIOD 1,  28.11, 112.79,   8.00, 120.00
2,1, 1, 1, 0, 1, 0.00,60.00,Holiday
213,274641430.9978657
6085,274641430.99786556
2,1, 1, 1, 0, 2, 0.00,60.00,Holiday
213,264595383.34651923
6085,264595383.34651908
2,1, 1, 1, 0, 3, 0.00,60.00,Holiday
213,263484940.30744404
6085,263484940.3074439
2,1, 1, 1, 0, 4, 0.00,60.00,Holiday
213,263045067.43719387
6085,263045067.43719378
2,1, 1, 1, 0, 5, 0.00,60.00,Holiday
213,266108223.92289093
6085,266108223.92289087
2,1, 1, 1, 0, 6, 0.00,60.00,Holiday
213,281466267.8948626
6085,281466267.89486235
2,1, 1, 1, 0, 7, 0.00,60.00,Holiday
213,302322623.6242022
6085,302322623.624202
2,1, 1, 1, 0, 8, 0.00,60.00,Holiday
213,299362811.56771505
6085,299362811.56771487
2,1, 1, 1, 0, 9, 0.00,60.00,Holiday
213,290982627.55905175
6085,290982627.5590515
2,1, 1, 1, 0,10, 0.00,60.00,Holiday
213,285315590.0435769
6085,285315590.04357666
2,1, 1, 1, 0,11, 0.00,60.00,Holiday
213,273899193.31917894
6085,273899193.3191787
2,1, 1, 1, 0,12, 0.00,60.00,Holiday
213,284271939.33771247
6085,284271939.3377122
2,1, 1, 1, 0,13, 0.00,60.00,Holiday
213,284377849.2791751
6085,284377849.27917486
2,1, 1, 1, 0,14, 0.00,60.00,Holiday
213,276048743.0707381
6085,276048743.0707379
2,1, 1, 1, 0,15, 0.00,60.00,Holiday
213,281862754.54812276
6085,281862754.5481225
2,1, 1, 1, 0,16, 0.00,60.00,Holiday
213,294056798.4839056
6085,294056798.48390543
2,1, 1, 1, 0,17, 0.00,60.00,Holiday
213,317274459.7832424
6085,317274459.7832425
2,1, 1, 1, 0,18, 0.00,60.00,Holiday
213,371501287.1399422
6085,371501287.13994265
2,1, 1, 1, 0,19, 0.00,60.00,Holiday
213,387072824.3170608
6085,387072824.31706136
2,1, 1, 1, 0,20, 0.00,60.00,Holiday
213,374121697.47777045
6085,374121697.4777709
2,1, 1, 1, 0,21, 0.00,60.00,Holiday
213,368946640.5089005
6085,368946640.508901
2,1, 1, 1, 0,22, 0.00,60.00,Holiday
213,350490628.9499525
6085,350490628.94995254
2,1, 1, 1, 0,23, 0.00,60.00,Holiday
213,318541821.2550178
6085,318541821.25501764
2,1, 1, 1, 0,24, 0.00,60.00,Holiday
213,296910567.48360735
6085,296910567.4836072
2,2, 1, 2, 0, 1, 0.00,60.00,Monday
213,279717655.8336939
6085,279717655.83369386
2,2, 1, 2, 0, 2, 0.00,60.00,Monday
213,272064736.4560402
6085,272064736.4560401
2,2, 1, 2, 0, 3, 0.00,60.00,Monday
213,269441719.2182294
6085,269441719.2182293
2,2, 1, 2, 0, 4, 0.00,60.00,Monday
213,268887333.37987024
6085,268887333.3798702
2,2, 1, 2, 0, 5, 0.00,60.00,Monday
213,272339602.67580235
6085,272339602.6758023
2,2, 1, 2, 0, 6, 0.00,60.00,Monday
213,287923292.293995
6085,287923292.29399484
2,2, 1, 2, 0, 7, 0.00,60.00,Monday
213,313364872.907311
6085,313364872.90731084
2,2, 1, 2, 0, 8, 0.00,60.00,Monday
213,312503256.00991505
6085,312503256.0099148
2,2, 1, 2, 0, 9, 0.00,60.00,Monday
213,309897822.09336525
6085,309897822.093365
2,2, 1, 2, 0,10, 0.00,60.00,Monday
213,304108295.6201455
6085,304108295.62014526
2,2, 1, 2, 0,11, 0.00,60.00,Monday
213,295115728.2389234
6085,295115728.23892313
2,2, 1, 2, 0,12, 0.00,60.00,Monday
213,297501048.94839746
6085,297501048.9483973
2,2, 1, 2, 0,13, 0.00,60.00,Monday
213,295256054.87631315
6085,295256054.8763129
2,2, 1, 2, 0,14, 0.00,60.00,Monday
213,293771184.3304866
6085,293771184.3304864
2,2, 1, 2, 0,15, 0.00,60.00,Monday
213,289003363.48021233
6085,289003363.4802122
2,2, 1, 2, 0,16, 0.00,60.00,Monday
213,294579658.7881797
6085,294579658.78817946
2,2, 1, 2, 0,17, 0.00,60.00,Monday
213,328773663.25770396
6085,328773663.2577041
2,2, 1, 2, 0,18, 0.00,60.00,Monday
213,376531363.71969974
6085,376531363.7197003
2,2, 1, 2, 0,19, 0.00,60.00,Monday
213,394977877.1006799
6085,394977877.1006803
2,2, 1, 2, 0,20, 0.00,60.00,Monday
213,385572358.05078614
6085,385572358.0507866
2,2, 1, 2, 0,21, 0.00,60.00,Monday
213,378214400.6614578
6085,378214400.66145825
2,2, 1, 2, 0,22, 0.00,60.00,Monday
213,357700373.7663312
6085,357700373.7663313
2,2, 1, 2, 0,23, 0.00,60.00,Monday
213,326104709.97661066
6085,326104709.9766105
2,2, 1, 2, 0,24, 0.00,60.00,Monday
213,304533602.009659
6085,304533602.0096587
2,3, 1, 3, 0, 1, 0.00,60.00,Tuesday
213,287461031.4850869
6085,287461031.48508686
2,3, 1, 3, 0, 2, 0.00,60.00,Tuesday
213,280637807.83653474
6085,280637807.83653456
2,3, 1, 3, 0, 3, 0.00,60.00,Tuesday
213,278612568.8536664
6085,278612568.8536663
2,3, 1, 3, 0, 4, 0.00,60.00,Tuesday
213,277890095.1747358
6085,277890095.17473567
2,3, 1, 3, 0, 5, 0.00,60.00,Tuesday
213,281344576.2686792
6085,281344576.26867914
2,3, 1, 3, 0, 6, 0.00,60.00,Tuesday
213,300545330.59313846
6085,300545330.5931383
2,3, 1, 3, 0, 7, 0.00,60.00,Tuesday
213,323320189.2447939
6085,323320189.2447938
2,3, 1, 3, 0, 8, 0.00,60.00,Tuesday
213,320142284.54041505
6085,320142284.5404149
2,3, 1, 3, 0, 9, 0.00,60.00,Tuesday
213,317547953.00295347
6085,317547953.0029533
2,3, 1, 3, 0,10, 0.00,60.00,Tuesday
213,309485106.7820368
6085,309485106.7820366
2,3, 1, 3, 0,11, 0.00,60.00,Tuesday
213,301755731.0260534
6085,301755731.0260533
2,3, 1, 3, 0,12, 0.00,60.00,Tuesday
213,304459423.54100764
6085,304459423.5410074
2,3, 1, 3, 0,13, 0.00,60.00,Tuesday
213,300445524.05443573
6085,300445524.0544355
2,3, 1, 3, 0,14, 0.00,60.00,Tuesday
213,298808450.5197382
6085,298808450.5197379
2,3, 1, 3, 0,15, 0.00,60.00,Tuesday
213,297854595.1135498
6085,297854595.1135497
2,3, 1, 3, 0,16, 0.00,60.00,Tuesday
213,306080700.06626874
6085,306080700.0662686
2,3, 1, 3, 0,17, 0.00,60.00,Tuesday
213,340386544.1245695
6085,340386544.1245696
2,3, 1, 3, 0,18, 0.00,60.00,Tuesday
213,387986696.738876
6085,387986696.7388766
2,3, 1, 3, 0,19, 0.00,60.00,Tuesday
213,402826147.23318386
6085,402826147.23318434
2,3, 1, 3, 0,20, 0.00,60.00,Tuesday
213,390585321.03759706
6085,390585321.0375975
2,3, 1, 3, 0,21, 0.00,60.00,Tuesday
213,383274953.3733348
6085,383274953.37333536
2,3, 1, 3, 0,22, 0.00,60.00,Tuesday
213,361850619.53154016
6085,361850619.5315403
2,3, 1, 3, 0,23, 0.00,60.00,Tuesday
213,328688309.680903
6085,328688309.6809028
2,3, 1, 3, 0,24, 0.00,60.00,Tuesday
213,302713231.3991454
6085,302713231.39914525
2,4, 1, 4, 0, 1, 0.00,60.00,Wednesday
213,285503879.3543473
6085,285503879.35434717
2,4, 1, 4, 0, 2, 0.00,60.00,Wednesday
213,281713547.6032592
6085,281713547.6032592
2,4, 1, 4, 0, 3, 0.00,60.00,Wednesday
213,283708061.20462066
6085,283708061.20462054
2,4, 1, 4, 0, 4, 0.00,60.00,Wednesday
213,283025162.96071047
6085,283025162.9607104
2,4, 1, 4, 0, 5, 0.00,60.00,Wednesday
213,283735071.159621
6085,283735071.1596209
2,4, 1, 4, 0, 6, 0.00,60.00,Wednesday
213,301834286.4171927
6085,301834286.4171925
2,4, 1, 4, 0, 7, 0.00,60.00,Wednesday
213,323113143.2440253
6085,323113143.2440251
2,4, 1, 4, 0, 8, 0.00,60.00,Wednesday
213,321323119.14762485
6085,321323119.1476247
2,4, 1, 4, 0, 9, 0.00,60.00,Wednesday
213,320776492.11990815
6085,320776492.119908
2,4, 1, 4, 0,10, 0.00,60.00,Wednesday
213,311386537.1779804
6085,311386537.17798024
2,4, 1, 4, 0,11, 0.00,60.00,Wednesday
213,295558413.28123754
6085,295558413.28123736
2,4, 1, 4, 0,12, 0.00,60.00,Wednesday
213,285257892.6122543
6085,285257892.612254
2,4, 1, 4, 0,13, 0.00,60.00,Wednesday
213,274652911.9022748
6085,274652911.9022746
2,4, 1, 4, 0,14, 0.00,60.00,Wednesday
213,271456082.3620857
6085,271456082.3620855
2,4, 1, 4, 0,15, 0.00,60.00,Wednesday
213,274635098.8933078
6085,274635098.89330757
2,4, 1, 4, 0,16, 0.00,60.00,Wednesday
213,283088292.0191468
6085,283088292.01914656
2,4, 1, 4, 0,17, 0.00,60.00,Wednesday
213,314905234.3804257
6085,314905234.3804258
2,4, 1, 4, 0,18, 0.00,60.00,Wednesday
213,367531628.25719297
6085,367531628.25719345
2,4, 1, 4, 0,19, 0.00,60.00,Wednesday
213,383598217.3473934
6085,383598217.3473939
2,4, 1, 4, 0,20, 0.00,60.00,Wednesday
213,368376983.590472
6085,368376983.5904725
2,4, 1, 4, 0,21, 0.00,60.00,Wednesday
213,366993378.4916524
6085,366993378.4916529
2,4, 1, 4, 0,22, 0.00,60.00,Wednesday
213,348608465.2292245
6085,348608465.2292247
2,4, 1, 4, 0,23, 0.00,60.00,Wednesday
213,313331340.06151396
6085,313331340.0615138
2,4, 1, 4, 0,24, 0.00,60.00,Wednesday
213,291598519.38715804
6085,291598519.3871578
2,5, 1, 5, 0, 1, 0.00,60.00,Thursday
213,275020904.7065967
6085,275020904.7065966
2,5, 1, 5, 0, 2, 0.00,60.00,Thursday
213,267429339.9491536
6085,267429339.9491536
2,5, 1, 5, 0, 3, 0.00,60.00,Thursday
213,266663581.3880819
6085,266663581.3880818
2,5, 1, 5, 0, 4, 0.00,60.00,Thursday
213,264981338.8957796
6085,264981338.89577952
2,5, 1, 5, 0, 5, 0.00,60.00,Thursday
213,265209457.9613539
6085,265209457.96135378
2,5, 1, 5, 0, 6, 0.00,60.00,Thursday
213,285559962.3922499
6085,285559962.3922497
2,5, 1, 5, 0, 7, 0.00,60.00,Thursday
213,313338564.6199599
6085,313338564.6199597
2,5, 1, 5, 0, 8, 0.00,60.00,Thursday
213,312334801.768317
6085,312334801.76831675
2,5, 1, 5, 0, 9, 0.00,60.00,Thursday
213,301173091.1297905
6085,301173091.12979025
2,5, 1, 5, 0,10, 0.00,60.00,Thursday
213,277028495.05355567
6085,277028495.0535554
2,5, 1, 5, 0,11, 0.00,60.00,Thursday
213,253884902.69253153
6085,253884902.69253135
2,5, 1, 5, 0,12, 0.00,60.00,Thursday
213,246201570.0086237
6085,246201570.00862345
2,5, 1, 5, 0,13, 0.00,60.00,Thursday
213,236944235.13498962
6085,236944235.1349894
2,5, 1, 5, 0,14, 0.00,60.00,Thursday
213,227582426.82023075
6085,227582426.82023054
2,5, 1, 5, 0,15, 0.00,60.00,Thursday
213,214541576.08315527
6085,214541576.0831551
2,5, 1, 5, 0,16, 0.00,60.00,Thursday
213,216288274.44512784
6085,216288274.4451276
2,5, 1, 5, 0,17, 0.00,60.00,Thursday
213,254867363.70716557
6085,254867363.7071657
2,5, 1, 5, 0,18, 0.00,60.00,Thursday
213,321617456.9634028
6085,321617456.96340334
2,5, 1, 5, 0,19, 0.00,60.00,Thursday
213,349556579.0252857
6085,349556579.02528626
2,5, 1, 5, 0,20, 0.00,60.00,Thursday
213,341569861.4477124
6085,341569861.44771296
2,5, 1, 5, 0,21, 0.00,60.00,Thursday
213,339553070.3619484
6085,339553070.3619489
2,5, 1, 5, 0,22, 0.00,60.00,Thursday
213,322094860.8226626
6085,322094860.8226627
2,5, 1, 5, 0,23, 0.00,60.00,Thursday
213,290071869.3935832
6085,290071869.393583
2,5, 1, 5, 0,24, 0.00,60.00,Thursday
213,263882149.4377201
6085,263882149.43771988
2,6, 1, 6, 0, 1, 0.00,60.00,Friday
213,246769616.7594211
6085,246769616.75942105
2,6, 1, 6, 0, 2, 0.00,60.00,Friday
213,244586235.91597846
6085,244586235.9159784
2,6, 1, 6, 0, 3, 0.00,60.00,Friday
213,244316732.84192517
6085,244316732.84192502
2,6, 1, 6, 0, 4, 0.00,60.00,Friday
213,244585796.084696
6085,244585796.08469588
2,6, 1, 6, 0, 5, 0.00,60.00,Friday
213,247848972.09622908
6085,247848972.09622905
2,6, 1, 6, 0, 6, 0.00,60.00,Friday
213,263345969.26793486
6085,263345969.2679347
2,6, 1, 6, 0, 7, 0.00,60.00,Friday
213,286578958.04560316
6085,286578958.0456029
2,6, 1, 6, 0, 8, 0.00,60.00,Friday
213,285767566.7972057
6085,285767566.7972054
2,6, 1, 6, 0, 9, 0.00,60.00,Friday
213,271511961.5598358
6085,271511961.55983555
2,6, 1, 6, 0,10, 0.00,60.00,Friday
213,239132332.14628768
6085,239132332.14628756
2,6, 1, 6, 0,11, 0.00,60.00,Friday
213,206636365.52217263
6085,206636365.52217248
2,6, 1, 6, 0,12, 0.00,60.00,Friday
213,202435054.032633
6085,202435054.03263283
2,6, 1, 6, 0,13, 0.00,60.00,Friday
213,197123178.978263
6085,197123178.97826284
2,6, 1, 6, 0,14, 0.00,60.00,Friday
213,192448837.49792007
6085,192448837.4979199
2,6, 1, 6, 0,15, 0.00,60.00,Friday
213,185802453.02875376
6085,185802453.02875358
2,6, 1, 6, 0,16, 0.00,60.00,Friday
213,191158062.91229856
6085,191158062.91229835
2,6, 1, 6, 0,17, 0.00,60.00,Friday
213,226721946.66445112
6085,226721946.66445094
2,6, 1, 6, 0,18, 0.00,60.00,Friday
213,282290448.7035794
6085,282290448.7035799
2,6, 1, 6, 0,19, 0.00,60.00,Friday
213,314019568.6731771
6085,314019568.67317766
2,6, 1, 6, 0,20, 0.00,60.00,Friday
213,304999437.68919295
6085,304999437.68919337
2,6, 1, 6, 0,21, 0.00,60.00,Friday
213,302332807.82567346
6085,302332807.825674
2,6, 1, 6, 0,22, 0.00,60.00,Friday
213,290261368.9876388
6085,290261368.98763895
2,6, 1, 6, 0,23, 0.00,60.00,Friday
213,267328986.2231277
6085,267328986.22312748
2,6, 1, 6, 0,24, 0.00,60.00,Friday
213,251751102.66783562
6085,251751102.6678354
2,7, 1, 7, 0, 1, 0.00,60.00,Saturday
213,246449509.95103177
6085,246449509.95103174
2,7, 1, 7, 0, 2, 0.00,60.00,Saturday
213,251906001.62570333
6085,251906001.62570328
2,7, 1, 7, 0, 3, 0.00,60.00,Saturday
213,254273205.22304454
6085,254273205.22304443
2,7, 1, 7, 0, 4, 0.00,60.00,Saturday
213,255472516.08576718
6085,255472516.085767
2,7, 1, 7, 0, 5, 0.00,60.00,Saturday
213,260967786.42601943
6085,260967786.42601934
2,7, 1, 7, 0, 6, 0.00,60.00,Saturday
213,280778762.130827
6085,280778762.13082683
2,7, 1, 7, 0, 7, 0.00,60.00,Saturday
213,305693678.1853021
6085,305693678.18530196
2,7, 1, 7, 0, 8, 0.00,60.00,Saturday
213,303526406.3819622
6085,303526406.38196194
2,7, 1, 7, 0, 9, 0.00,60.00,Saturday
213,278486357.3854145
6085,278486357.38541424
2,7, 1, 7, 0,10, 0.00,60.00,Saturday
213,250787753.72336382
6085,250787753.72336367
2,7, 1, 7, 0,11, 0.00,60.00,Saturday
213,220981206.59592247
6085,220981206.5959223
2,7, 1, 7, 0,12, 0.00,60.00,Saturday
213,207134401.62603796
6085,207134401.62603775
2,7, 1, 7, 0,13, 0.00,60.00,Saturday
213,201782717.09589544
6085,201782717.0958953
2,7, 1, 7, 0,14, 0.00,60.00,Saturday
213,195483101.28305337
6085,195483101.28305316
2,7, 1, 7, 0,15, 0.00,60.00,Saturday
213,190011076.95887047
6085,190011076.9588703
2,7, 1, 7, 0,16, 0.00,60.00,Saturday
213,195448152.74858707
6085,195448152.7485869
2,7, 1, 7, 0,17, 0.00,60.00,Saturday
213,233762057.1080339
6085,233762057.10803372
2,7, 1, 7, 0,18, 0.00,60.00,Saturday
213,293240895.73373836
6085,293240895.73373884
2,7, 1, 7, 0,19, 0.00,60.00,Saturday
213,321493042.461944
6085,321493042.4619445
2,7, 1, 7, 0,20, 0.00,60.00,Saturday
213,314469733.8878666
6085,314469733.8878671
2,7, 1, 7, 0,21, 0.00,60.00,Saturday
213,314610934.5404364
6085,314610934.54043686
2,7, 1, 7, 0,22, 0.00,60.00,Saturday
213,302464917.2764909
6085,302464917.2764911
2,7, 1, 7, 0,23, 0.00,60.00,Saturday
213,277502623.6729927
6085,277502623.67299247
2,7, 1, 7, 0,24, 0.00,60.00,Saturday
213,257082705.76101243
6085,257082705.7610122
2,8, 1, 8, 0, 1, 0.00,60.00,Sunday
213,244877565.32797548
6085,244877565.32797545
2,8, 1, 8, 0, 2, 0.00,60.00,Sunday
213,246640838.26658407
6085,246640838.266584
2,8, 1, 8, 0, 3, 0.00,60.00,Sunday
213,250593039.9829896
6085,250593039.98298955
2,8, 1, 8, 0, 4, 0.00,60.00,Sunday
213,253333502.871454
6085,253333502.87145388
2,8, 1, 8, 0, 5, 0.00,60.00,Sunday
213,258716238.1365093
6085,258716238.13650912
2,8, 1, 8, 0, 6, 0.00,60.00,Sunday
213,276009263.9674651
6085,276009263.96746486
2,8, 1, 8, 0, 7, 0.00,60.00,Sunday
213,302044809.86425805
6085,302044809.8642578
2,8, 1, 8, 0, 8, 0.00,60.00,Sunday
213,303902178.7727734
6085,303902178.77277327
2,8, 1, 8, 0, 9, 0.00,60.00,Sunday
213,275291007.50549346
6085,275291007.5054932
2,8, 1, 8, 0,10, 0.00,60.00,Sunday
213,238616176.41878787
6085,238616176.41878763
2,8, 1, 8, 0,11, 0.00,60.00,Sunday
213,209082889.77326936
6085,209082889.77326918
2,8, 1, 8, 0,12, 0.00,60.00,Sunday
213,200579558.41654915
6085,200579558.41654894
2,8, 1, 8, 0,13, 0.00,60.00,Sunday
213,197218428.56342703
6085,197218428.56342685
2,8, 1, 8, 0,14, 0.00,60.00,Sunday
213,190752631.06029242
6085,190752631.06029224
2,8, 1, 8, 0,15, 0.00,60.00,Sunday
213,185851636.20657513
6085,185851636.20657492
2,8, 1, 8, 0,16, 0.00,60.00,Sunday
213,189405236.7753878
6085,189405236.7753876
2,8, 1, 8, 0,17, 0.00,60.00,Sunday
213,225471052.49638963
6085,225471052.49638945
2,8, 1, 8, 0,18, 0.00,60.00,Sunday
213,282538731.68526584
6085,282538731.6852664
2,8, 1, 8, 0,19, 0.00,60.00,Sunday
213,310407223.1270678
6085,310407223.1270683
2,8, 1, 8, 0,20, 0.00,60.00,Sunday
213,301004615.25169843
6085,301004615.25169885
2,8, 1, 8, 0,21, 0.00,60.00,Sunday
213,300688547.0104109
6085,300688547.0104113
2,8, 1, 8, 0,22, 0.00,60.00,Sunday
213,285334396.79852545
6085,285334396.7985256
2,8, 1, 8, 0,23, 0.00,60.00,Sunday
213,257308453.61263895
6085,257308453.6126387
2,8, 1, 8, 0,24, 0.00,60.00,Sunday
213,237299073.84247074
6085,237299073.8424706
2,9, 1, 9, 0, 1, 0.00,60.00,Monday
213,229031961.5131756
6085,229031961.5131756
2,9, 1, 9, 0, 2, 0.00,60.00,Monday
213,237430339.3107677
6085,237430339.3107676
2,9, 1, 9, 0, 3, 0.00,60.00,Monday
213,241749338.71685827
6085,241749338.71685815
2,9, 1, 9, 0, 4, 0.00,60.00,Monday
213,242207030.29418704
6085,242207030.2941869
2,9, 1, 9, 0, 5, 0.00,60.00,Monday
213,253414744.50193042
6085,253414744.50193024
2,9, 1, 9, 0, 6, 0.00,60.00,Monday
213,274965507.39132756
6085,274965507.3913273
2,9, 1, 9, 0, 7, 0.00,60.00,Monday
213,304471601.3478737
6085,304471601.34787345
2,9, 1, 9, 0, 8, 0.00,60.00,Monday
213,307033479.2621978
6085,307033479.26219755
2,9, 1, 9, 0, 9, 0.00,60.00,Monday
213,284625365.39390934
6085,284625365.3939091
2,9, 1, 9, 0,10, 0.00,60.00,Monday
213,243589744.8026613
6085,243589744.80266112
2,9, 1, 9, 0,11, 0.00,60.00,Monday
213,212252128.7130668
6085,212252128.71306664
2,9, 1, 9, 0,12, 0.00,60.00,Monday
213,198485091.9269877
6085,198485091.9269875
2,9, 1, 9, 0,13, 0.00,60.00,Monday
213,189878598.4789807
6085,189878598.47898054
2,9, 1, 9, 0,14, 0.00,60.00,Monday
213,189377850.09323475
6085,189377850.09323454
2,9, 1, 9, 0,15, 0.00,60.00,Monday
213,196605864.84250408
6085,196605864.8425039
2,9, 1, 9, 0,16, 0.00,60.00,Monday
213,205130164.93574497
6085,205130164.9357448
2,9, 1, 9, 0,17, 0.00,60.00,Monday
213,230539868.55857724
6085,230539868.55857706
2,9, 1, 9, 0,18, 0.00,60.00,Monday
213,270760034.6913167
6085,270760034.6913172
2,9, 1, 9, 0,19, 0.00,60.00,Monday
213,303108969.55903685
6085,303108969.5590374
2,9, 1, 9, 0,20, 0.00,60.00,Monday
213,296416294.2732795
6085,296416294.2732799
2,9, 1, 9, 0,21, 0.00,60.00,Monday
213,296739314.49841297
6085,296739314.49841344
2,9, 1, 9, 0,22, 0.00,60.00,Monday
213,281405965.51422447
6085,281405965.5142246
2,9, 1, 9, 0,23, 0.00,60.00,Monday
213,249089617.31862462
6085,249089617.3186244
2,9, 1, 9, 0,24, 0.00,60.00,Monday
213,234282954.49578887
6085,234282954.49578863
2,10, 1,10, 0, 1, 0.00,60.00,Tuesday
213,229062809.27116644
6085,229062809.27116644
2,10, 1,10, 0, 2, 0.00,60.00,Tuesday
213,231983787.46985358
6085,231983787.46985346
2,10, 1,10, 0, 3, 0.00,60.00,Tuesday
213,234182693.89117616
6085,234182693.89117602
2,10, 1,10, 0, 4, 0.00,60.00,Tuesday
213,237600559.68326128
6085,237600559.68326113
2,10, 1,10, 0, 5, 0.00,60.00,Tuesday
213,244915959.844935
6085,244915959.84493488
2,10, 1,10, 0, 6, 0.00,60.00,Tuesday
213,266323380.67237782
6085,266323380.6723776
2,10, 1,10, 0, 7, 0.00,60.00,Tuesday
213,295809198.57392883
6085,295809198.57392865
2,10, 1,10, 0, 8, 0.00,60.00,Tuesday
213,299099823.10735863
6085,299099823.10735846
2,10, 1,10, 0, 9, 0.00,60.00,Tuesday
213,281525310.0845833
6085,281525310.0845831
2,10, 1,10, 0,10, 0.00,60.00,Tuesday
213,244220844.1014675
6085,244220844.1014673
2,10, 1,10, 0,11, 0.00,60.00,Tuesday
213,207617695.1734359
6085,207617695.17343566
2,10, 1,10, 0,12, 0.00,60.00,Tuesday
213,194821098.03240365
6085,194821098.03240344
2,10, 1,10, 0,13, 0.00,60.00,Tuesday
213,189009336.13753116
6085,189009336.137531
2,10, 1,10, 0,14, 0.00,60.00,Tuesday
213,193043167.28800663
6085,193043167.28800642
2,10, 1,10, 0,15, 0.00,60.00,Tuesday
213,195098433.29738715
6085,195098433.29738703
2,10, 1,10, 0,16, 0.00,60.00,Tuesday
213,199149404.08142295
6085,199149404.08142275
2,10, 1,10, 0,17, 0.00,60.00,Tuesday
213,226105029.91259405
6085,226105029.9125938
2,10, 1,10, 0,18, 0.00,60.00,Tuesday
213,267657723.49776405
6085,267657723.49776453
2,10, 1,10, 0,19, 0.00,60.00,Tuesday
213,290936295.94841
6085,290936295.9484105
2,10, 1,10, 0,20, 0.00,60.00,Tuesday
213,280580091.4338594
6085,280580091.4338599
2,10, 1,10, 0,21, 0.00,60.00,Tuesday
213,282072348.81135625
6085,282072348.8113568
2,10, 1,10, 0,22, 0.00,60.00,Tuesday
213,266876418.25564903
6085,266876418.25564918
2,10, 1,10, 0,23, 0.00,60.00,Tuesday
213,234479238.7698138
6085,234479238.76981354
2,10, 1,10, 0,24, 0.00,60.00,Tuesday
213,207128372.21276006
6085,207128372.21275985
2,11, 1,11, 0, 1, 0.00,60.00,Wednesday
213,188196307.0826214
6085,188196307.08262134
2,11, 1,11, 0, 2, 0.00,60.00,Wednesday
213,184632373.4896946
6085,184632373.48969445
2,11, 1,11, 0, 3, 0.00,60.00,Wednesday
213,186501080.87536708
6085,186501080.8753669
2,11, 1,11, 0, 4, 0.00,60.00,Wednesday
213,188913677.76289997
6085,188913677.76289982
2,11, 1,11, 0, 5, 0.00,60.00,Wednesday
213,191180361.16485146
6085,191180361.16485128
2,11, 1,11, 0, 6, 0.00,60.00,Wednesday
213,212943214.13710758
6085,212943214.13710743
2,11, 1,11, 0, 7, 0.00,60.00,Wednesday
213,238145701.86064285
6085,238145701.86064267
2,11, 1,11, 0, 8, 0.00,60.00,Wednesday
213,237053053.219199
6085,237053053.21919882
2,11, 1,11, 0, 9, 0.00,60.00,Wednesday
213,237179483.2788327
6085,237179483.2788325
2,11, 1,11, 0,10, 0.00,60.00,Wednesday
213,228347845.70992565
6085,228347845.70992544
2,11, 1,11, 0,11, 0.00,60.00,Wednesday
213,214265110.12024292
6085,214265110.12024277
2,11, 1,11, 0,12, 0.00,60.00,Wednesday
213,222485810.55779493
6085,222485810.55779478
2,11, 1,11, 0,13, 0.00,60.00,Wednesday
213,219854356.55958667
6085,219854356.55958655
2,11, 1,11, 0,14, 0.00,60.00,Wednesday
213,213480648.89641708
6085,213480648.8964169
2,11, 1,11, 0,15, 0.00,60.00,Wednesday
213,223301635.4720112
6085,223301635.47201097
2,11, 1,11, 0,16, 0.00,60.00,Wednesday
213,240178650.14183283
6085,240178650.14183256
2,11, 1,11, 0,17, 0.00,60.00,Wednesday
213,277101989.3346984
6085,277101989.3346986
2,11, 1,11, 0,18, 0.00,60.00,Wednesday
213,330608655.54048926
6085,330608655.54048973
2,11, 1,11, 0,19, 0.00,60.00,Wednesday
213,351100430.7477177
6085,351100430.7477182
2,11, 1,11, 0,20, 0.00,60.00,Wednesday
213,338694739.21805114
6085,338694739.21805155
2,11, 1,11, 0,21, 0.00,60.00,Wednesday
213,333387813.11656487
6085,333387813.1165654
2,11, 1,11, 0,22, 0.00,60.00,Wednesday
213,316060832.1728028
6085,316060832.1728029
2,11, 1,11, 0,23, 0.00,60.00,Wednesday
213,286963998.078952
6085,286963998.0789519
2,11, 1,11, 0,24, 0.00,60.00,Wednesday
213,267395098.7981742
6085,267395098.79817405
2,12, 1,12, 0, 1, 0.00,60.00,Thursday
213,253628210.10359377
6085,253628210.1035937
2,12, 1,12, 0, 2, 0.00,60.00,Thursday
213,251780817.91548207
6085,251780817.91548193
2,12, 1,12, 0, 3, 0.00,60.00,Thursday
213,251352396.93694544
6085,251352396.93694532
2,12, 1,12, 0, 4, 0.00,60.00,Thursday
213,250752993.88839802
6085,250752993.88839787
2,12, 1,12, 0, 5, 0.00,60.00,Thursday
213,254043739.5226032
6085,254043739.52260306
2,12, 1,12, 0, 6, 0.00,60.00,Thursday
213,274645910.4669185
6085,274645910.46691835
2,12, 1,12, 0, 7, 0.00,60.00,Thursday
213,299702121.1042473
6085,299702121.10424703
2,12, 1,12, 0, 8, 0.00,60.00,Thursday
213,298196605.0383707
6085,298196605.0383705
2,12, 1,12, 0, 9, 0.00,60.00,Thursday
213,298717225.00012434
6085,298717225.0001241
2,12, 1,12, 0,10, 0.00,60.00,Thursday
213,286010968.50214165
6085,286010968.5021415
2,12, 1,12, 0,11, 0.00,60.00,Thursday
213,262119292.91329435
6085,262119292.91329414
2,12, 1,12, 0,12, 0.00,60.00,Thursday
213,263767115.6839145
6085,263767115.68391427
2,12, 1,12, 0,13, 0.00,60.00,Thursday
213,257689021.5272711
6085,257689021.5272709
2,12, 1,12, 0,14, 0.00,60.00,Thursday
213,247929999.15166032
6085,247929999.15166014
2,12, 1,12, 0,15, 0.00,60.00,Thursday
213,254915654.10676163
6085,254915654.10676146
2,12, 1,12, 0,16, 0.00,60.00,Thursday
213,267095591.26165414
6085,267095591.26165387
2,12, 1,12, 0,17, 0.00,60.00,Thursday
213,303801919.1031616
6085,303801919.10316175
2,12, 1,12, 0,18, 0.00,60.00,Thursday
213,356892537.0184692
6085,356892537.0184697
2,12, 1,12, 0,19, 0.00,60.00,Thursday
213,370725285.8929837
6085,370725285.89298415
2,12, 1,12, 0,20, 0.00,60.00,Thursday
213,355501364.2293828
6085,355501364.22938335
2,12, 1,12, 0,21, 0.00,60.00,Thursday
213,353427168.4250327
6085,353427168.42503315
2,12, 1,12, 0,22, 0.00,60.00,Thursday
213,334876424.18773854
6085,334876424.18773866
2,12, 1,12, 0,23, 0.00,60.00,Thursday
213,300393666.8947868
6085,300393666.89478654
2,12, 1,12, 0,24, 0.00,60.00,Thursday
213,278956134.06715214
6085,278956134.0671519
2,13, 1,13, 0, 1, 0.00,60.00,Friday
213,266769116.20745802
6085,266769116.20745802
2,13, 1,13, 0, 2, 0.00,60.00,Friday
213,263699353.97064236
6085,263699353.97064227
2,13, 1,13, 0, 3, 0.00,60.00,Friday
213,266521327.76057708
6085,266521327.76057693
2,13, 1,13, 0, 4, 0.00,60.00,Friday
213,266067616.5090362
6085,266067616.50903603
2,13, 1,13, 0, 5, 0.00,60.00,Friday
213,265592785.4747755
6085,265592785.4747755
2,13, 1,13, 0, 6, 0.00,60.00,Friday
213,284842635.83462286
6085,284842635.8346227
2,13, 1,13, 0, 7, 0.00,60.00,Friday
213,307806844.27446884
6085,307806844.27446866
2,13, 1,13, 0, 8, 0.00,60.00,Friday
213,305961599.4272847
6085,305961599.4272846
2,13, 1,13, 0, 9, 0.00,60.00,Friday
213,302520621.82714605
6085,302520621.8271458
2,13, 1,13, 0,10, 0.00,60.00,Friday
213,289086222.25526774
6085,289086222.2552675
2,13, 1,13, 0,11, 0.00,60.00,Friday
213,274315365.1639952
6085,274315365.163995
2,13, 1,13, 0,12, 0.00,60.00,Friday
213,272452186.6099455
6085,272452186.60994524
2,13, 1,13, 0,13, 0.00,60.00,Friday
213,266802815.3228515
6085,266802815.3228513
2,13, 1,13, 0,14, 0.00,60.00,Friday
213,265694845.72235668
6085,265694845.7223565
2,13, 1,13, 0,15, 0.00,60.00,Friday
213,266172656.98674428
6085,266172656.98674408
2,13, 1,13, 0,16, 0.00,60.00,Friday
213,275497257.2653041
6085,275497257.2653039
2,13, 1,13, 0,17, 0.00,60.00,Friday
213,310153677.4262066
6085,310153677.4262067
2,13, 1,13, 0,18, 0.00,60.00,Friday
213,360481966.8559498
6085,360481966.85595036
2,13, 1,13, 0,19, 0.00,60.00,Friday
213,377051438.39803994
6085,377051438.3980404
2,13, 1,13, 0,20, 0.00,60.00,Friday
213,364179159.8076145
6085,364179159.807615
2,13, 1,13, 0,21, 0.00,60.00,Friday
213,362932663.5480386
6085,362932663.5480391
2,13, 1,13, 0,22, 0.00,60.00,Friday
213,344844954.4499723
6085,344844954.44997245
2,13, 1,13, 0,23, 0.00,60.00,Friday
213,310451301.837002
6085,310451301.8370018
2,13, 1,13, 0,24, 0.00,60.00,Friday
213,285166648.3923255
6085,285166648.3923253
2,14, 1,14, 0, 1, 0.00,60.00,Saturday
213,272386161.64403284
6085,272386161.6440327
2,14, 1,14, 0, 2, 0.00,60.00,Saturday
213,270982299.3332423
6085,270982299.33324224
2,14, 1,14, 0, 3, 0.00,60.00,Saturday
213,272444839.8899399
6085,272444839.88993984
2,14, 1,14, 0, 4, 0.00,60.00,Saturday
213,271794794.9520614
6085,271794794.95206136
2,14, 1,14, 0, 5, 0.00,60.00,Saturday
213,272290132.2632346
6085,272290132.2632345
2,14, 1,14, 0, 6, 0.00,60.00,Saturday
213,290542544.09441507
6085,290542544.0944149
2,14, 1,14, 0, 7, 0.00,60.00,Saturday
213,312529909.06927013
6085,312529909.06926996
2,14, 1,14, 0, 8, 0.00,60.00,Saturday
213,308551121.4296505
6085,308551121.42965025
2,14, 1,14, 0, 9, 0.00,60.00,Saturday
213,298623133.3824607
6085,298623133.3824605
2,14, 1,14, 0,10, 0.00,60.00,Saturday
213,285916763.54044557
6085,285916763.5404454
2,14, 1,14, 0,11, 0.00,60.00,Saturday
213,266519158.54246616
6085,266519158.54246598
2,14, 1,14, 0,12, 0.00,60.00,Saturday
213,275177560.04292333
6085,275177560.04292303
2,14, 1,14, 0,13, 0.00,60.00,Saturday
213,272119798.91147983
6085,272119798.9114796
2,14, 1,14, 0,14, 0.00,60.00,Saturday
213,261808138.2409886
6085,261808138.24098837
2,14, 1,14, 0,15, 0.00,60.00,Saturday
213,269910574.59265655
6085,269910574.5926563
2,14, 1,14, 0,16, 0.00,60.00,Saturday
213,282828570.5924146
6085,282828570.5924145
2,14, 1,14, 0,17, 0.00,60.00,Saturday
213,308992655.78759295
6085,308992655.7875931
2,14, 1,14, 0,18, 0.00,60.00,Saturday
213,364864810.4721319
6085,364864810.4721324
2,14, 1,14, 0,19, 0.00,60.00,Saturday
213,387734901.3694957
6085,387734901.3694962
2,14, 1,14, 0,20, 0.00,60.00,Saturday
213,372899259.7328117
6085,372899259.7328121
2,14, 1,14, 0,21, 0.00,60.00,Saturday
213,368601846.11567795
6085,368601846.11567837
2,14, 1,14, 0,22, 0.00,60.00,Saturday
213,347173087.87234026
6085,347173087.87234044
2,14, 1,14, 0,23, 0.00,60.00,Saturday
213,312218950.6111613
6085,312218950.61116105
2,14, 1,14, 0,24, 0.00,60.00,Saturday
213,287918059.98380005
6085,287918059.9837999
2,15, 1,15, 0, 1, 0.00,60.00,Sunday
213,271207710.674806
6085,271207710.674806
2,15, 1,15, 0, 2, 0.00,60.00,Sunday
213,267086394.49483344
6085,267086394.4948333
2,15, 1,15, 0, 3, 0.00,60.00,Sunday
213,269039498.9740307
6085,269039498.97403055
2,15, 1,15, 0, 4, 0.00,60.00,Sunday
213,268426655.35272485
6085,268426655.35272467
2,15, 1,15, 0, 5, 0.00,60.00,Sunday
213,268857918.039726
6085,268857918.039726
2,15, 1,15, 0, 6, 0.00,60.00,Sunday
213,282656316.32770187
6085,282656316.3277016
2,15, 1,15, 0, 7, 0.00,60.00,Sunday
213,306844854.9897732
6085,306844854.9897729
2,15, 1,15, 0, 8, 0.00,60.00,Sunday
213,309224729.9594983
6085,309224729.9594981
2,15, 1,15, 0, 9, 0.00,60.00,Sunday
213,306058619.5376021
6085,306058619.53760195
2,15, 1,15, 0,10, 0.00,60.00,Sunday
213,299739629.7982192
6085,299739629.798219
2,15, 1,15, 0,11, 0.00,60.00,Sunday
213,283667330.2026384
6085,283667330.2026382
2,15, 1,15, 0,12, 0.00,60.00,Sunday
213,285742507.78289473
6085,285742507.7828945
2,15, 1,15, 0,13, 0.00,60.00,Sunday
213,283938991.4655507
6085,283938991.46555054
2,15, 1,15, 0,14, 0.00,60.00,Sunday
213,280721272.61247015
6085,280721272.6124699
2,15, 1,15, 0,15, 0.00,60.00,Sunday
213,280607671.5038507
6085,280607671.5038504
2,15, 1,15, 0,16, 0.00,60.00,Sunday
213,293752640.8155436
6085,293752640.81554335
2,15, 1,15, 0,17, 0.00,60.00,Sunday
213,324297695.1464546
6085,324297695.14645475
2,15, 1,15, 0,18, 0.00,60.00,Sunday
213,369046916.2799748
6085,369046916.27997524
2,15, 1,15, 0,19, 0.00,60.00,Sunday
213,392637348.4979488