Program Version,EnergyPlus, Version 26.1.0-6f2e40d102, YMD=2026.04.15 00:26
1,5,Environment Title[],Latitude[deg],Longitude[deg],Time Zone[],Elevation[m]
2,8,Day of Simulation[],Month[],Day of Month[],DST Indicator[1=yes 0=no],Hour[],StartMinute[],EndMinute[],DayType
3,5,Cumulative Day of Simulation[],Month[],Day of Month[],DST Indicator[1=yes 0=no],DayType  ! When Daily Meters Requested
4,2,Cumulative Days of Simulation[],Month[]  ! When Monthly Meters Requested
5,1,Cumulative Days of Simulation[] ! When Run Period Meters Requested
6,1,Calendar Year of Simulation[] ! When Annual Meters Requested
213,1,Electricity:Facility [J] !Hourly
6085,1,ElectricityNet:Facility [J] !Hourly
End of Data Dictionary
1,RUNPERIOD 1,  28.11, 112.79,   8.00, 120.00
2,1, 1, 1, 0, 1, 0.00,60.00,Holiday
213,240921894.44447035
6085,240921894.44447035
2,1, 1, 1, 0, 2, 0.00,60.00,Holiday
213,228827201.54531598
6085,228827201.54531586
2,1, 1, 1, 0, 3, 0.00,60.00,Holiday
213,227601412.67619032
6085,227601412.67619014
2,1, 1, 1, 0, 4, 0.00,60.00,Holiday
213,227064825.88427812
6085,227064825.884278
2,1, 1, 1, 0, 5, 0.00,60.00,Holiday
213,230065412.22294563
6085,230065412.2229455
2,1, 1, 1, 0, 6, 0.00,60.00,Holiday
213,245350660.25489372
6085,245350660.2548936
2,1, 1, 1, 0, 7, 0.00,60.00,Holiday
213,266030007.92613024
6085,266030007.92613006
2,1, 1, 1, 0, 8, 0.00,60.00,Holiday
213,262925196.19001788
6085,262925196.19001767
2,1, 1, 1, 0, 9, 0.00,60.00,Holiday
213,254554670.6888554
6085,254554670.68885517
2,1, 1, 1, 0,10, 0.00,60.00,Holiday
213,248843469.13793314
6085,248843469.13793296
2,1, 1, 1, 0,11, 0.00,60.00,Holiday
213,237230366.14690638
6085,237230366.14690623
2,1, 1, 1, 0,12, 0.00,60.00,Holiday
213,250131466.6469403
6085,250131466.64694008
2,1, 1, 1, 0,13, 0.00,60.00,Holiday
213,250090304.85138303
6085,250090304.85138288
2,1, 1, 1, 0,14, 0.00,60.00,Holiday
213,239592229.56443077
6085,239592229.56443062
2,1, 1, 1, 0,15, 0.00,60.00,Holiday
213,247908577.81900018
6085,247908577.819
2,1, 1, 1, 0,16, 0.00,60.00,Holiday
213,260766143.99873152
6085,260766143.99873134
2,1, 1, 1, 0,17, 0.00,60.00,Holiday
213,281220796.9013159
6085,281220796.90131617
2,1, 1, 1, 0,18, 0.00,60.00,Holiday
213,335320231.34035546
6085,335320231.34035593
2,1, 1, 1, 0,19, 0.00,60.00,Holiday
213,350830841.2059494
6085,350830841.2059499
2,1, 1, 1, 0,20, 0.00,60.00,Holiday
213,337971099.2877815
6085,337971099.28778195
2,1, 1, 1, 0,21, 0.00,60.00,Holiday
213,332811480.1642864
6085,332811480.1642869
2,1, 1, 1, 0,22, 0.00,60.00,Holiday
213,314368139.5869259
6085,314368139.58692616
2,1, 1, 1, 0,23, 0.00,60.00,Holiday
213,282456308.3124743
6085,282456308.31247413
2,1, 1, 1, 0,24, 0.00,60.00,Holiday
213,263404824.89907625
6085,263404824.89907607
2,2, 1, 2, 0, 1, 0.00,60.00,Monday
213,246168139.567194
6085,246168139.56719393
2,2, 1, 2, 0, 2, 0.00,60.00,Monday
213,236465639.1667335
6085,236465639.16673338
2,2, 1, 2, 0, 3, 0.00,60.00,Monday
213,233686065.643853
6085,233686065.64385283
2,2, 1, 2, 0, 4, 0.00,60.00,Monday
213,233070233.34931272
6085,233070233.3493126
2,2, 1, 2, 0, 5, 0.00,60.00,Monday
213,236498415.7047246
6085,236498415.7047245
2,2, 1, 2, 0, 6, 0.00,60.00,Monday
213,252048685.18697444
6085,252048685.18697426
2,2, 1, 2, 0, 7, 0.00,60.00,Monday
213,277331472.4341316
6085,277331472.43413144
2,2, 1, 2, 0, 8, 0.00,60.00,Monday
213,276312747.8110566
6085,276312747.81105644
2,2, 1, 2, 0, 9, 0.00,60.00,Monday
213,274376744.347947
6085,274376744.3479467
2,2, 1, 2, 0,10, 0.00,60.00,Monday
213,268595436.89354575
6085,268595436.89354557
2,2, 1, 2, 0,11, 0.00,60.00,Monday
213,259518490.81061545
6085,259518490.81061527
2,2, 1, 2, 0,12, 0.00,60.00,Monday
213,261825910.2201541
6085,261825910.22015387
2,2, 1, 2, 0,13, 0.00,60.00,Monday
213,259459186.47761354
6085,259459186.47761333
2,2, 1, 2, 0,14, 0.00,60.00,Monday
213,258047675.3773799
6085,258047675.37737966
2,2, 1, 2, 0,15, 0.00,60.00,Monday
213,253151729.8058616
6085,253151729.80586138
2,2, 1, 2, 0,16, 0.00,60.00,Monday
213,258755742.88532144
6085,258755742.8853213
2,2, 1, 2, 0,17, 0.00,60.00,Monday
213,292959521.979073
6085,292959521.97907317
2,2, 1, 2, 0,18, 0.00,60.00,Monday
213,340470944.1712825
6085,340470944.1712829
2,2, 1, 2, 0,19, 0.00,60.00,Monday
213,358800086.57167333
6085,358800086.5716738
2,2, 1, 2, 0,20, 0.00,60.00,Monday
213,349577898.90816075
6085,349577898.90816116
2,2, 1, 2, 0,21, 0.00,60.00,Monday
213,342286859.68550944
6085,342286859.68550986
2,2, 1, 2, 0,22, 0.00,60.00,Monday
213,321802698.91155225
6085,321802698.9115524
2,2, 1, 2, 0,23, 0.00,60.00,Monday
213,290268947.18906695
6085,290268947.1890667
2,2, 1, 2, 0,24, 0.00,60.00,Monday
213,271300937.3230551
6085,271300937.323055
2,3, 1, 3, 0, 1, 0.00,60.00,Tuesday
213,254219996.1169676
6085,254219996.1169676
2,3, 1, 3, 0, 2, 0.00,60.00,Tuesday
213,245376561.688797
6085,245376561.68879688
2,3, 1, 3, 0, 3, 0.00,60.00,Tuesday
213,243215694.9091188
6085,243215694.90911874
2,3, 1, 3, 0, 4, 0.00,60.00,Tuesday
213,242482397.53422928
6085,242482397.5342291
2,3, 1, 3, 0, 5, 0.00,60.00,Tuesday
213,245935303.4101076
6085,245935303.41010752
2,3, 1, 3, 0, 6, 0.00,60.00,Tuesday
213,267621347.0352015
6085,267621347.03520128
2,3, 1, 3, 0, 7, 0.00,60.00,Tuesday
213,290233927.65076727
6085,290233927.650767
2,3, 1, 3, 0, 8, 0.00,60.00,Tuesday
213,284775990.99135053
6085,284775990.9913503
2,3, 1, 3, 0, 9, 0.00,60.00,Tuesday
213,282782605.0912223
6085,282782605.091222
2,3, 1, 3, 0,10, 0.00,60.00,Tuesday
213,274587607.3142409
6085,274587607.3142407
2,3, 1, 3, 0,11, 0.00,60.00,Tuesday
213,266708765.66435906
6085,266708765.6643589
2,3, 1, 3, 0,12, 0.00,60.00,Tuesday
213,269286248.2818546
6085,269286248.28185445
2,3, 1, 3, 0,13, 0.00,60.00,Tuesday
213,265060283.9570217
6085,265060283.9570216
2,3, 1, 3, 0,14, 0.00,60.00,Tuesday
213,263457681.04990423
6085,263457681.04990405
2,3, 1, 3, 0,15, 0.00,60.00,Tuesday
213,262475318.9033804
6085,262475318.9033801
2,3, 1, 3, 0,16, 0.00,60.00,Tuesday
213,270787936.6258222
6085,270787936.62582195
2,3, 1, 3, 0,17, 0.00,60.00,Tuesday
213,305121082.47990143
6085,305121082.4799016
2,3, 1, 3, 0,18, 0.00,60.00,Tuesday
213,352378735.2197186
6085,352378735.2197191
2,3, 1, 3, 0,19, 0.00,60.00,Tuesday
213,367054043.30935735
6085,367054043.3093579
2,3, 1, 3, 0,20, 0.00,60.00,Tuesday
213,354958608.2649417
6085,354958608.26494217
2,3, 1, 3, 0,21, 0.00,60.00,Tuesday
213,347664237.82471406
6085,347664237.8247144
2,3, 1, 3, 0,22, 0.00,60.00,Tuesday
213,326214748.3999142
6085,326214748.3999144
2,3, 1, 3, 0,23, 0.00,60.00,Tuesday
213,293048832.6048147
6085,293048832.60481447
2,3, 1, 3, 0,24, 0.00,60.00,Tuesday
213,267082824.7325296
6085,267082824.73252937
2,4, 1, 4, 0, 1, 0.00,60.00,Wednesday
213,249931677.83973807
6085,249931677.83973804
2,4, 1, 4, 0, 2, 0.00,60.00,Wednesday
213,246177297.4019671
6085,246177297.40196705
2,4, 1, 4, 0, 3, 0.00,60.00,Wednesday
213,250729084.4213381
6085,250729084.42133796
2,4, 1, 4, 0, 4, 0.00,60.00,Wednesday
213,250002613.52103046
6085,250002613.5210303
2,4, 1, 4, 0, 5, 0.00,60.00,Wednesday
213,248724266.2207653
6085,248724266.2207652
2,4, 1, 4, 0, 6, 0.00,60.00,Wednesday
213,266720753.1511979
6085,266720753.1511977
2,4, 1, 4, 0, 7, 0.00,60.00,Wednesday
213,287771455.67269707
6085,287771455.6726968
2,4, 1, 4, 0, 8, 0.00,60.00,Wednesday
213,285822005.0671095
6085,285822005.06710935
2,4, 1, 4, 0, 9, 0.00,60.00,Wednesday
213,285941183.076768
6085,285941183.0767678
2,4, 1, 4, 0,10, 0.00,60.00,Wednesday
213,276322869.25050825
6085,276322869.250508
2,4, 1, 4, 0,11, 0.00,60.00,Wednesday
213,259973708.96495625
6085,259973708.96495605
2,4, 1, 4, 0,12, 0.00,60.00,Wednesday
213,249047610.23413286
6085,249047610.23413262
2,4, 1, 4, 0,13, 0.00,60.00,Wednesday
213,238000927.39942026
6085,238000927.39942008
2,4, 1, 4, 0,14, 0.00,60.00,Wednesday
213,234712412.72384837
6085,234712412.72384822
2,4, 1, 4, 0,15, 0.00,60.00,Wednesday
213,240240043.46846497
6085,240240043.46846476
2,4, 1, 4, 0,16, 0.00,60.00,Wednesday
213,248532452.8449753
6085,248532452.8449751
2,4, 1, 4, 0,17, 0.00,60.00,Wednesday
213,278351447.0992417
6085,278351447.0992419
2,4, 1, 4, 0,18, 0.00,60.00,Wednesday
213,334064809.0692178
6085,334064809.0692183
2,4, 1, 4, 0,19, 0.00,60.00,Wednesday
213,349953388.8213841
6085,349953388.82138443
2,4, 1, 4, 0,20, 0.00,60.00,Wednesday
213,332318079.3656504
6085,332318079.36565083
2,4, 1, 4, 0,21, 0.00,60.00,Wednesday
213,333395393.1692549
6085,333395393.1692554
2,4, 1, 4, 0,22, 0.00,60.00,Wednesday
213,314891237.98478675
6085,314891237.98478687
2,4, 1, 4, 0,23, 0.00,60.00,Wednesday
213,277631331.8892283
6085,277631331.88922817
2,4, 1, 4, 0,24, 0.00,60.00,Wednesday
213,258227470.8173747
6085,258227470.8173745
2,5, 1, 5, 0, 1, 0.00,60.00,Thursday
213,241617422.85950762
6085,241617422.8595076
2,5, 1, 5, 0, 2, 0.00,60.00,Thursday
213,232058409.83278632
6085,232058409.8327862
2,5, 1, 5, 0, 3, 0.00,60.00,Thursday
213,233549251.83160913
6085,233549251.83160904
2,5, 1, 5, 0, 4, 0.00,60.00,Thursday
213,231720445.9930419
6085,231720445.99304178
2,5, 1, 5, 0, 5, 0.00,60.00,Thursday
213,229969784.04127628
6085,229969784.04127616
2,5, 1, 5, 0, 6, 0.00,60.00,Thursday
213,252754345.99966016
6085,252754345.99966
2,5, 1, 5, 0, 7, 0.00,60.00,Thursday
213,280456747.3127461
6085,280456747.31274587
2,5, 1, 5, 0, 8, 0.00,60.00,Thursday
213,277268665.6270509
6085,277268665.62705076
2,5, 1, 5, 0, 9, 0.00,60.00,Thursday
213,265964874.48403144
6085,265964874.48403123
2,5, 1, 5, 0,10, 0.00,60.00,Thursday
213,241232608.01387164
6085,241232608.01387146
2,5, 1, 5, 0,11, 0.00,60.00,Thursday
213,216524263.6034568
6085,216524263.60345665
2,5, 1, 5, 0,12, 0.00,60.00,Thursday
213,207445042.24000242
6085,207445042.24000221
2,5, 1, 5, 0,13, 0.00,60.00,Thursday
213,197645721.65204796
6085,197645721.65204778
2,5, 1, 5, 0,14, 0.00,60.00,Thursday
213,189637154.00771636
6085,189637154.00771624
2,5, 1, 5, 0,15, 0.00,60.00,Thursday
213,183265165.4439115
6085,183265165.4439113
2,5, 1, 5, 0,16, 0.00,60.00,Thursday
213,189763486.62026092
6085,189763486.62026075
2,5, 1, 5, 0,17, 0.00,60.00,Thursday
213,226175567.18261972
6085,226175567.18261957
2,5, 1, 5, 0,18, 0.00,60.00,Thursday
213,282942401.3849048
6085,282942401.3849053
2,5, 1, 5, 0,19, 0.00,60.00,Thursday
213,309243477.9702751
6085,309243477.9702755
2,5, 1, 5, 0,20, 0.00,60.00,Thursday
213,300679692.4184532
6085,300679692.41845363
2,5, 1, 5, 0,21, 0.00,60.00,Thursday
213,299814805.30307126
6085,299814805.3030716
2,5, 1, 5, 0,22, 0.00,60.00,Thursday
213,283423641.6102775
6085,283423641.6102776
2,5, 1, 5, 0,23, 0.00,60.00,Thursday
213,251648269.71229684
6085,251648269.71229666
2,5, 1, 5, 0,24, 0.00,60.00,Thursday
213,225690399.84192434
6085,225690399.84192416
2,6, 1, 6, 0, 1, 0.00,60.00,Friday
213,208730975.4128042
6085,208730975.41280416
2,6, 1, 6, 0, 2, 0.00,60.00,Friday
213,206749110.01199132
6085,206749110.0119912
2,6, 1, 6, 0, 3, 0.00,60.00,Friday
213,206554947.25830224
6085,206554947.25830215
2,6, 1, 6, 0, 4, 0.00,60.00,Friday
213,206880715.3000545
6085,206880715.30005437
2,6, 1, 6, 0, 5, 0.00,60.00,Friday
213,210153118.62881187
6085,210153118.62881178
2,6, 1, 6, 0, 6, 0.00,60.00,Friday
213,225666949.2652464
6085,225666949.2652462
2,6, 1, 6, 0, 7, 0.00,60.00,Friday
213,248871976.18974972
6085,248871976.18974945
2,6, 1, 6, 0, 8, 0.00,60.00,Friday
213,248062472.7660344
6085,248062472.76603422
2,6, 1, 6, 0, 9, 0.00,60.00,Friday
213,233349515.0443816
6085,233349515.0443814
2,6, 1, 6, 0,10, 0.00,60.00,Friday
213,203596592.53851378
6085,203596592.53851363
2,6, 1, 6, 0,11, 0.00,60.00,Friday
213,185688735.65152088
6085,185688735.65152073
2,6, 1, 6, 0,12, 0.00,60.00,Friday
213,186270785.15904394
6085,186270785.15904376
2,6, 1, 6, 0,13, 0.00,60.00,Friday
213,183872972.25530687
6085,183872972.25530672
2,6, 1, 6, 0,14, 0.00,60.00,Friday
213,188225372.7004721
6085,188225372.7004719
2,6, 1, 6, 0,15, 0.00,60.00,Friday
213,194683913.68184927
6085,194683913.68184906
2,6, 1, 6, 0,16, 0.00,60.00,Friday
213,203979696.06486747
6085,203979696.0648673
2,6, 1, 6, 0,17, 0.00,60.00,Friday
213,230226269.70506263
6085,230226269.70506248
2,6, 1, 6, 0,18, 0.00,60.00,Friday
213,268194718.88629386
6085,268194718.88629434
2,6, 1, 6, 0,19, 0.00,60.00,Friday
213,293214144.2808403
6085,293214144.28084075
2,6, 1, 6, 0,20, 0.00,60.00,Friday
213,281943105.76662093
6085,281943105.76662135
2,6, 1, 6, 0,21, 0.00,60.00,Friday
213,277648322.19308937
6085,277648322.1930899
2,6, 1, 6, 0,22, 0.00,60.00,Friday
213,261916980.03644815
6085,261916980.03644833
2,6, 1, 6, 0,23, 0.00,60.00,Friday
213,232656038.91805708
6085,232656038.9180569
2,6, 1, 6, 0,24, 0.00,60.00,Friday
213,210317200.28497708
6085,210317200.28497696
2,7, 1, 7, 0, 1, 0.00,60.00,Saturday
213,198405545.9198455
6085,198405545.9198454
2,7, 1, 7, 0, 2, 0.00,60.00,Saturday
213,202326128.04020083
6085,202326128.04020065
2,7, 1, 7, 0, 3, 0.00,60.00,Saturday
213,205610297.285331
6085,205610297.2853309
2,7, 1, 7, 0, 4, 0.00,60.00,Saturday
213,208888642.53021842
6085,208888642.5302184
2,7, 1, 7, 0, 5, 0.00,60.00,Saturday
213,215982416.67213085
6085,215982416.67213076
2,7, 1, 7, 0, 6, 0.00,60.00,Saturday
213,236966451.3591897
6085,236966451.35918945
2,7, 1, 7, 0, 7, 0.00,60.00,Saturday
213,262710220.18366376
6085,262710220.18366367
2,7, 1, 7, 0, 8, 0.00,60.00,Saturday
213,260542604.3991763
6085,260542604.39917615
2,7, 1, 7, 0, 9, 0.00,60.00,Saturday
213,234747107.07452786
6085,234747107.0745277
2,7, 1, 7, 0,10, 0.00,60.00,Saturday
213,214056206.577493
6085,214056206.57749286
2,7, 1, 7, 0,11, 0.00,60.00,Saturday
213,195544753.48918432
6085,195544753.48918414
2,7, 1, 7, 0,12, 0.00,60.00,Saturday
213,187245881.5271217
6085,187245881.52712148
2,7, 1, 7, 0,13, 0.00,60.00,Saturday
213,182886393.841121
6085,182886393.84112084
2,7, 1, 7, 0,14, 0.00,60.00,Saturday
213,177794331.73609433
6085,177794331.7360941
2,7, 1, 7, 0,15, 0.00,60.00,Saturday
213,173805950.62433785
6085,173805950.62433767
2,7, 1, 7, 0,16, 0.00,60.00,Saturday
213,182266592.71876794
6085,182266592.71876776
2,7, 1, 7, 0,17, 0.00,60.00,Saturday
213,220194842.35488558
6085,220194842.3548854
2,7, 1, 7, 0,18, 0.00,60.00,Saturday
213,272150770.7678885
6085,272150770.767889
2,7, 1, 7, 0,19, 0.00,60.00,Saturday
213,298105676.5329628
6085,298105676.5329632
2,7, 1, 7, 0,20, 0.00,60.00,Saturday
213,287557354.7096179
6085,287557354.70961845
2,7, 1, 7, 0,21, 0.00,60.00,Saturday
213,284201809.9420643
6085,284201809.94206476
2,7, 1, 7, 0,22, 0.00,60.00,Saturday
213,267275030.39554703
6085,267275030.39554718
2,7, 1, 7, 0,23, 0.00,60.00,Saturday
213,236278885.48445785
6085,236278885.4844576
2,7, 1, 7, 0,24, 0.00,60.00,Saturday
213,211022399.64563882
6085,211022399.64563859
2,8, 1, 8, 0, 1, 0.00,60.00,Sunday
213,194030426.13551793
6085,194030426.13551787
2,8, 1, 8, 0, 2, 0.00,60.00,Sunday
213,195668420.58675194
6085,195668420.58675176
2,8, 1, 8, 0, 3, 0.00,60.00,Sunday
213,199143260.26706168
6085,199143260.26706162
2,8, 1, 8, 0, 4, 0.00,60.00,Sunday
213,203600369.90448248
6085,203600369.90448236
2,8, 1, 8, 0, 5, 0.00,60.00,Sunday
213,211304783.06102312
6085,211304783.061023
2,8, 1, 8, 0, 6, 0.00,60.00,Sunday
213,229604214.23830017
6085,229604214.23830003
2,8, 1, 8, 0, 7, 0.00,60.00,Sunday
213,256631502.28103468
6085,256631502.28103447
2,8, 1, 8, 0, 8, 0.00,60.00,Sunday
213,258874827.70260245
6085,258874827.70260227
2,8, 1, 8, 0, 9, 0.00,60.00,Sunday
213,230786004.68186235
6085,230786004.68186224
2,8, 1, 8, 0,10, 0.00,60.00,Sunday
213,208798266.43293133
6085,208798266.43293113
2,8, 1, 8, 0,11, 0.00,60.00,Sunday
213,188990580.05050486
6085,188990580.05050468
2,8, 1, 8, 0,12, 0.00,60.00,Sunday
213,187098882.52902925
6085,187098882.5290291
2,8, 1, 8, 0,13, 0.00,60.00,Sunday
213,199559831.68885884
6085,199559831.6888587
2,8, 1, 8, 0,14, 0.00,60.00,Sunday
213,206828079.3304587
6085,206828079.33045852
2,8, 1, 8, 0,15, 0.00,60.00,Sunday
213,213087673.669026
6085,213087673.66902584
2,8, 1, 8, 0,16, 0.00,60.00,Sunday
213,212886740.01730257
6085,212886740.0173024
2,8, 1, 8, 0,17, 0.00,60.00,Sunday
213,240885018.07504645
6085,240885018.0750463
2,8, 1, 8, 0,18, 0.00,60.00,Sunday
213,274830854.02136654
6085,274830854.02136695
2,8, 1, 8, 0,19, 0.00,60.00,Sunday
213,291378183.8967562
6085,291378183.8967567
2,8, 1, 8, 0,20, 0.00,60.00,Sunday
213,278959785.1546633
6085,278959785.15466374
2,8, 1, 8, 0,21, 0.00,60.00,Sunday
213,276231348.5935021
6085,276231348.5935026
2,8, 1, 8, 0,22, 0.00,60.00,Sunday
213,259988012.67048302
6085,259988012.67048317
2,8, 1, 8, 0,23, 0.00,60.00,Sunday
213,229096938.5071592
6085,229096938.50715896
2,8, 1, 8, 0,24, 0.00,60.00,Sunday
213,204576819.9112568
6085,204576819.91125658
2,9, 1, 9, 0, 1, 0.00,60.00,Monday
213,188702775.33300704
6085,188702775.33300698
2,9, 1, 9, 0, 2, 0.00,60.00,Monday
213,190047052.96607915
6085,190047052.966079
2,9, 1, 9, 0, 3, 0.00,60.00,Monday
213,190858168.29143497
6085,190858168.29143482
2,9, 1, 9, 0, 4, 0.00,60.00,Monday
213,192061859.47022113
6085,192061859.47022098
2,9, 1, 9, 0, 5, 0.00,60.00,Monday
213,202748522.5632573
6085,202748522.5632572
2,9, 1, 9, 0, 6, 0.00,60.00,Monday
213,224612675.58416742
6085,224612675.5841672
2,9, 1, 9, 0, 7, 0.00,60.00,Monday
213,255742391.3723464
6085,255742391.37234622
2,9, 1, 9, 0, 8, 0.00,60.00,Monday
213,259185284.68016723
6085,259185284.68016702
2,9, 1, 9, 0, 9, 0.00,60.00,Monday
213,237873950.54092625
6085,237873950.54092607
2,9, 1, 9, 0,10, 0.00,60.00,Monday
213,213233556.7696525
6085,213233556.7696523
2,9, 1, 9, 0,11, 0.00,60.00,Monday
213,191602737.6911776
6085,191602737.69117746
2,9, 1, 9, 0,12, 0.00,60.00,Monday
213,195934834.8760218
6085,195934834.87602162
2,9, 1, 9, 0,13, 0.00,60.00,Monday
213,218558326.16779092
6085,218558326.16779077
2,9, 1, 9, 0,14, 0.00,60.00,Monday
213,186092999.33900273
6085,186092999.33900258
2,9, 1, 9, 0,15, 0.00,60.00,Monday
213,148943284.0050893
6085,148943284.00508913
2,9, 1, 9, 0,16, 0.00,60.00,Monday
213,157952780.16742152
6085,157952780.16742134
2,9, 1, 9, 0,17, 0.00,60.00,Monday
213,196337339.04843011
6085,196337339.04842994
2,9, 1, 9, 0,18, 0.00,60.00,Monday
213,251943685.58694965
6085,251943685.58695006
2,9, 1, 9, 0,19, 0.00,60.00,Monday
213,281675309.82616854
6085,281675309.826169
2,9, 1, 9, 0,20, 0.00,60.00,Monday
213,280040186.3438593
6085,280040186.3438598
2,9, 1, 9, 0,21, 0.00,60.00,Monday
213,276542301.3926544
6085,276542301.39265484
2,9, 1, 9, 0,22, 0.00,60.00,Monday
213,258661094.66053027
6085,258661094.66053045
2,9, 1, 9, 0,23, 0.00,60.00,Monday
213,224959473.82739604
6085,224959473.82739586
2,9, 1, 9, 0,24, 0.00,60.00,Monday
213,206555126.32642278
6085,206555126.32642257
2,10, 1,10, 0, 1, 0.00,60.00,Tuesday
213,194754704.3295071
6085,194754704.3295071
2,10, 1,10, 0, 2, 0.00,60.00,Tuesday
213,191339114.1780071
6085,191339114.17800695
2,10, 1,10, 0, 3, 0.00,60.00,Tuesday
213,190434122.14046717
6085,190434122.14046705
2,10, 1,10, 0, 4, 0.00,60.00,Tuesday
213,192162120.34236276
6085,192162120.34236258
2,10, 1,10, 0, 5, 0.00,60.00,Tuesday
213,199500243.89281774
6085,199500243.89281765
2,10, 1,10, 0, 6, 0.00,60.00,Tuesday
213,220860220.55126214
6085,220860220.551262
2,10, 1,10, 0, 7, 0.00,60.00,Tuesday
213,251160319.76758957
6085,251160319.7675894
2,10, 1,10, 0, 8, 0.00,60.00,Tuesday
213,255023352.7145724
6085,255023352.71457225
2,10, 1,10, 0, 9, 0.00,60.00,Tuesday
213,237879700.87612948
6085,237879700.87612927
2,10, 1,10, 0,10, 0.00,60.00,Tuesday
213,216299061.4416306
6085,216299061.44163042
2,10, 1,10, 0,11, 0.00,60.00,Tuesday
213,189609233.2372998
6085,189609233.23729962
2,10, 1,10, 0,12, 0.00,60.00,Tuesday
213,199366861.44993043
6085,199366861.44993022
2,10, 1,10, 0,13, 0.00,60.00,Tuesday
213,221426359.56800312
6085,221426359.5680029
2,10, 1,10, 0,14, 0.00,60.00,Tuesday
213,159841393.04712784
6085,159841393.04712766
2,10, 1,10, 0,15, 0.00,60.00,Tuesday
213,148943284.0050893
6085,148943284.00508913
2,10, 1,10, 0,16, 0.00,60.00,Tuesday
213,157952780.16742152
6085,157952780.16742134
2,10, 1,10, 0,17, 0.00,60.00,Tuesday
213,196337339.04843011
6085,196337339.04842994
2,10, 1,10, 0,18, 0.00,60.00,Tuesday
213,251943685.58694965
6085,251943685.58695006
2,10, 1,10, 0,19, 0.00,60.00,Tuesday
213,276837777.09457207
6085,276837777.09457254
2,10, 1,10, 0,20, 0.00,60.00,Tuesday
213,262470060.9037609
6085,262470060.9037614
2,10, 1,10, 0,21, 0.00,60.00,Tuesday
213,263498388.42897466
6085,263498388.42897514
2,10, 1,10, 0,22, 0.00,60.00,Tuesday
213,249650397.1951704
6085,249650397.19517052
2,10, 1,10, 0,23, 0.00,60.00,Tuesday
213,213312653.1206584
6085,213312653.12065822
2,10, 1,10, 0,24, 0.00,60.00,Tuesday
213,183510759.83960402
6085,183510759.83960384
2,11, 1,11, 0, 1, 0.00,60.00,Wednesday
213,163583898.54942778
6085,163583898.5494277
2,11, 1,11, 0, 2, 0.00,60.00,Wednesday
213,159756199.2644616
6085,159756199.26446146
2,11, 1,11, 0, 3, 0.00,60.00,Wednesday
213,162196792.86365038
6085,162196792.8636502
2,11, 1,11, 0, 4, 0.00,60.00,Wednesday
213,162991848.32251748
6085,162991848.3225173
2,11, 1,11, 0, 5, 0.00,60.00,Wednesday
213,164301835.0608067
6085,164301835.0608065
2,11, 1,11, 0, 6, 0.00,60.00,Wednesday
213,185869739.29010376
6085,185869739.2901036
2,11, 1,11, 0, 7, 0.00,60.00,Wednesday
213,212290100.73285693
6085,212290100.73285675
2,11, 1,11, 0, 8, 0.00,60.00,Wednesday
213,211826199.1810026
6085,211826199.1810024
2,11, 1,11, 0, 9, 0.00,60.00,Wednesday
213,207847646.85673103
6085,207847646.85673076
2,11, 1,11, 0,10, 0.00,60.00,Wednesday
213,198903149.79109618
6085,198903149.79109597
2,11, 1,11, 0,11, 0.00,60.00,Wednesday
213,184915060.8712677
6085,184915060.87126753
2,11, 1,11, 0,12, 0.00,60.00,Wednesday
213,191786556.4071364
6085,191786556.40713623
2,11, 1,11, 0,13, 0.00,60.00,Wednesday
213,188955926.1069486
6085,188955926.10694844
2,11, 1,11, 0,14, 0.00,60.00,Wednesday
213,182464806.91953146
6085,182464806.9195313
2,11, 1,11, 0,15, 0.00,60.00,Wednesday
213,186875735.81442347
6085,186875735.8144233
2,11, 1,11, 0,16, 0.00,60.00,Wednesday
213,198787605.57890087
6085,198787605.5789007
2,11, 1,11, 0,17, 0.00,60.00,Wednesday
213,234147459.96599942
6085,234147459.9659993
2,11, 1,11, 0,18, 0.00,60.00,Wednesday
213,287338600.56762606
6085,287338600.5676265
2,11, 1,11, 0,19, 0.00,60.00,Wednesday
213,311338871.6716433
6085,311338871.67164373
2,11, 1,11, 0,20, 0.00,60.00,Wednesday
213,297798758.0363822
6085,297798758.0363827
2,11, 1,11, 0,21, 0.00,60.00,Wednesday
213,291529284.7971304
6085,291529284.7971308
2,11, 1,11, 0,22, 0.00,60.00,Wednesday
213,272988186.4647576
6085,272988186.4647578
2,11, 1,11, 0,23, 0.00,60.00,Wednesday
213,242636679.6119721
6085,242636679.61197177
2,11, 1,11, 0,24, 0.00,60.00,Wednesday
213,220809134.84053528
6085,220809134.8405351
2,12, 1,12, 0, 1, 0.00,60.00,Thursday
213,207726273.82435292
6085,207726273.82435292
2,12, 1,12, 0, 2, 0.00,60.00,Thursday
213,207139528.57300138
6085,207139528.5730012
2,12, 1,12, 0, 3, 0.00,60.00,Thursday
213,207513038.82085747
6085,207513038.82085735
2,12, 1,12, 0, 4, 0.00,60.00,Thursday
213,207496869.2856807
6085,207496869.28568056
2,12, 1,12, 0, 5, 0.00,60.00,Thursday
213,211310233.7893403
6085,211310233.7893402
2,12, 1,12, 0, 6, 0.00,60.00,Thursday
213,234853992.08856213
6085,234853992.08856198
2,12, 1,12, 0, 7, 0.00,60.00,Thursday
213,260048993.44978935
6085,260048993.4497891
2,12, 1,12, 0, 8, 0.00,60.00,Thursday
213,256768444.9838262
6085,256768444.98382598
2,12, 1,12, 0, 9, 0.00,60.00,Thursday
213,260015300.60334548
6085,260015300.60334522
2,12, 1,12, 0,10, 0.00,60.00,Thursday
213,247045468.43781453
6085,247045468.4378144
2,12, 1,12, 0,11, 0.00,60.00,Thursday
213,220514504.94947428
6085,220514504.94947413
2,12, 1,12, 0,12, 0.00,60.00,Thursday
213,223832008.561992
6085,223832008.56199178
2,12, 1,12, 0,13, 0.00,60.00,Thursday
213,217166454.96193624
6085,217166454.96193606
2,12, 1,12, 0,14, 0.00,60.00,Thursday
213,205347197.97005916
6085,205347197.97005898
2,12, 1,12, 0,15, 0.00,60.00,Thursday
213,214783962.12904677
6085,214783962.12904656
2,12, 1,12, 0,16, 0.00,60.00,Thursday
213,227502537.48740995
6085,227502537.48740977
2,12, 1,12, 0,17, 0.00,60.00,Thursday
213,262874977.18510437
6085,262874977.18510455
2,12, 1,12, 0,18, 0.00,60.00,Thursday
213,319379863.97762024
6085,319379863.9776207
2,12, 1,12, 0,19, 0.00,60.00,Thursday
213,333232682.30094343
6085,333232682.300944
2,12, 1,12, 0,20, 0.00,60.00,Thursday
213,316013640.122506
6085,316013640.1225064
2,12, 1,12, 0,21, 0.00,60.00,Thursday
213,316423410.3353302
6085,316423410.3353307
2,12, 1,12, 0,22, 0.00,60.00,Thursday
213,297786426.51523525
6085,297786426.5152355
2,12, 1,12, 0,23, 0.00,60.00,Thursday
213,261543026.3117615
6085,261543026.3117612
2,12, 1,12, 0,24, 0.00,60.00,Thursday
213,242655022.5468531
6085,242655022.5468529
2,13, 1,13, 0, 1, 0.00,60.00,Friday
213,230516153.3626827
6085,230516153.36268273
2,13, 1,13, 0, 2, 0.00,60.00,Friday
213,225524631.13146073
6085,225524631.1314606
2,13, 1,13, 0, 3, 0.00,60.00,Friday
213,230878174.0624067
6085,230878174.06240657
2,13, 1,13, 0, 4, 0.00,60.00,Friday
213,230197126.052254
6085,230197126.05225387
2,13, 1,13, 0, 5, 0.00,60.00,Friday
213,227629445.4769124
6085,227629445.47691235
2,13, 1,13, 0, 6, 0.00,60.00,Friday
213,249419376.99669737
6085,249419376.9966972
2,13, 1,13, 0, 7, 0.00,60.00,Friday
213,272098585.3057855
6085,272098585.3057853
2,13, 1,13, 0, 8, 0.00,60.00,Friday
213,268154904.095377
6085,268154904.09537688
2,13, 1,13, 0, 9, 0.00,60.00,Friday
213,267086808.08809152
6085,267086808.08809137
2,13, 1,13, 0,10, 0.00,60.00,Friday
213,253309624.2426883
6085,253309624.24268812
2,13, 1,13, 0,11, 0.00,60.00,Friday
213,236470046.06169373
6085,236470046.0616936
2,13, 1,13, 0,12, 0.00,60.00,Friday
213,234321041.6548245
6085,234321041.65482432
2,13, 1,13, 0,13, 0.00,60.00,Friday
213,228423737.77413344
6085,228423737.77413332
2,13, 1,13, 0,14, 0.00,60.00,Friday
213,227311327.2271251
6085,227311327.22712493
2,13, 1,13, 0,15, 0.00,60.00,Friday
213,227738606.1146842
6085,227738606.11468402
2,13, 1,13, 0,16, 0.00,60.00,Friday
213,237125377.78044897
6085,237125377.78044876
2,13, 1,13, 0,17, 0.00,60.00,Friday
213,271787853.6517329
6085,271787853.6517331
2,13, 1,13, 0,18, 0.00,60.00,Friday
213,322209765.66220963
6085,322209765.6622101
2,13, 1,13, 0,19, 0.00,60.00,Friday
213,338861125.94592285
6085,338861125.94592327
2,13, 1,13, 0,20, 0.00,60.00,Friday
213,326203979.7800287
6085,326203979.7800292
2,13, 1,13, 0,21, 0.00,60.00,Friday
213,327470028.73911333
6085,327470028.7391138
2,13, 1,13, 0,22, 0.00,60.00,Friday
213,309306809.090306
6085,309306809.0903061
2,13, 1,13, 0,23, 0.00,60.00,Friday
213,273082083.6358042
6085,273082083.63580394
2,13, 1,13, 0,24, 0.00,60.00,Friday
213,247727888.44980586
6085,247727888.44980568
2,14, 1,14, 0, 1, 0.00,60.00,Saturday
213,235040134.78771126
6085,235040134.7877113
2,14, 1,14, 0, 2, 0.00,60.00,Saturday
213,233648064.3537499
6085,233648064.35374975
2,14, 1,14, 0, 3, 0.00,60.00,Saturday
213,237532551.18090707
6085,237532551.18090695
2,14, 1,14, 0, 4, 0.00,60.00,Saturday
213,236825399.89439148
6085,236825399.89439136
2,14, 1,14, 0, 5, 0.00,60.00,Saturday
213,235494788.2019126
6085,235494788.2019125
2,14, 1,14, 0, 6, 0.00,60.00,Saturday
213,256103532.31700468
6085,256103532.3170045
2,14, 1,14, 0, 7, 0.00,60.00,Saturday
213,277877122.47398293
6085,277877122.47398275
2,14, 1,14, 0, 8, 0.00,60.00,Saturday
213,271768750.9748008
6085,271768750.97480065
2,14, 1,14, 0, 9, 0.00,60.00,Saturday
213,264109724.3022271
6085,264109724.3022269
2,14, 1,14, 0,10, 0.00,60.00,Saturday
213,251043384.85838243
6085,251043384.85838223
2,14, 1,14, 0,11, 0.00,60.00,Saturday
213,229445762.5940264
6085,229445762.59402618
2,14, 1,14, 0,12, 0.00,60.00,Saturday
213,240288768.50360578
6085,240288768.50360557
2,14, 1,14, 0,13, 0.00,60.00,Saturday
213,236923049.96269402
6085,236923049.96269384
2,14, 1,14, 0,14, 0.00,60.00,Saturday
213,224622317.22829992
6085,224622317.22829968
2,14, 1,14, 0,15, 0.00,60.00,Saturday
213,234941122.19667608
6085,234941122.19667587
2,14, 1,14, 0,16, 0.00,60.00,Saturday
213,247729084.36006713
6085,247729084.36006695
2,14, 1,14, 0,17, 0.00,60.00,Saturday
213,271958958.0491896
6085,271958958.0491898
2,14, 1,14, 0,18, 0.00,60.00,Saturday
213,330294407.56272334
6085,330294407.5627238
2,14, 1,14, 0,19, 0.00,60.00,Saturday
213,353056281.27806795
6085,353056281.2780685
2,14, 1,14, 0,20, 0.00,60.00,Saturday
213,336408367.05913275
6085,336408367.0591332
2,14, 1,14, 0,21, 0.00,60.00,Saturday
213,334501977.8050002
6085,334501977.8050006
2,14, 1,14, 0,22, 0.00,60.00,Saturday
213,312852558.56467426
6085,312852558.5646744
2,14, 1,14, 0,23, 0.00,60.00,Saturday
213,275973769.7189036
6085,275973769.7189034
2,14, 1,14, 0,24, 0.00,60.00,Saturday
213,251602757.87545627
6085,251602757.8754561
2,15, 1,15, 0, 1, 0.00,60.00,Sunday
213,234885815.04115596
6085,234885815.04115596
2,15, 1,15, 0, 2, 0.00,60.00,Sunday
213,230700548.15755814
6085,230700548.15755805
2,15, 1,15, 0, 3, 0.00,60.00,Sunday
213,235031927.9982391
6085,235031927.998239
2,15, 1,15, 0, 4, 0.00,60.00,Sunday
213,234327576.33096722
6085,234327576.33096716
2,15, 1,15, 0, 5, 0.00,60.00,Sunday
213,232836163.18238413
6085,232836163.18238395
2,15, 1,15, 0, 6, 0.00,60.00,Sunday
213,246486230.88716188
6085,246486230.88716167
2,15, 1,15, 0, 7, 0.00,60.00,Sunday
213,270505633.6687873
6085,270505633.6687871
2,15, 1,15, 0, 8, 0.00,60.00,Sunday
213,272781546.21148014
6085,272781546.2114799
2,15, 1,15, 0, 9, 0.00,60.00,Sunday
213,272249874.3206476
6085,272249874.32064736
2,15, 1,15, 0,10, 0.00,60.00,Sunday
213,265778816.27154723
6085,265778816.27154705
2,15, 1,15, 0,11, 0.00,60.00,Sunday
213,247437969.56633684
6085,247437969.56633666
2,15, 1,15, 0,12, 0.00,60.00,Sunday
213,249244742.94526368
6085,249244742.94526348
2,15, 1,15, 0,13, 0.00,60.00,Sunday
213,247273315.27596864
6085,247273315.27596846
2,15, 1,15, 0,14, 0.00,60.00,Sunday
213,243966200.15687692
6085,243966200.15687674
2,15, 1,15, 0,15, 0.00,60.00,Sunday
213,243790880.58046144
6085,243790880.58046132
2,15, 1,15, 0,16, 0.00,60.00,Sunday
213,256985183.32594517
6085,256985183.32594502
2,15, 1,15, 0,17, 0.00,60.00,Sunday
213,287494126.75389856
6085,287494126.7538987
2,15, 1,15, 0,18, 0.00,60.00,Sunday
213,332285523.5106483