Program Version,EnergyPlus, Version 26.1.0-6f2e40d102, YMD=2026.04.14 19:47
1,5,Environment Title[],Latitude[deg],Longitude[deg],Time Zone[],Elevation[m]
2,8,Day of Simulation[],Month[],Day of Month[],DST Indicator[1=yes 0=no],Hour[],StartMinute[],EndMinute[],DayType
3,5,Cumulative Day of Simulation[],Month[],Day of Month[],DST Indicator[1=yes 0=no],DayType  ! When Daily Meters Requested
4,2,Cumulative Days of Simulation[],Month[]  ! When Monthly Meters Requested
5,1,Cumulative Days of Simulation[] ! When Run Period Meters Requested
6,1,Calendar Year of Simulation[] ! When Annual Meters Requested
213,1,Electricity:Facility [J] !Hourly
5925,1,ElectricityNet:Facility [J] !Hourly
End of Data Dictionary
1,RUNPERIOD 1,  28.11, 112.79,   8.00, 120.00
2,1, 1, 1, 0, 1, 0.00,60.00,Sunday
213,77957270.89466953
5925,77957270.8946695
2,1, 1, 1, 0, 2, 0.00,60.00,Sunday
213,82223908.90558577
5925,82223908.90558577
2,1, 1, 1, 0, 3, 0.00,60.00,Sunday
213,87068930.0920271
5925,87068930.09202711
2,1, 1, 1, 0, 4, 0.00,60.00,Sunday
213,80371619.30999416
5925,80371619.30999413
2,1, 1, 1, 0, 5, 0.00,60.00,Sunday
213,90329098.30804554
5925,90329098.30804554
2,1, 1, 1, 0, 6, 0.00,60.00,Sunday
213,116981118.30189236
5925,116981118.30189228
2,1, 1, 1, 0, 7, 0.00,60.00,Sunday
213,182370976.41891387
5925,182370976.41891384
2,1, 1, 1, 0, 8, 0.00,60.00,Sunday
213,186524768.63172507
5925,186524768.63172507
2,1, 1, 1, 0, 9, 0.00,60.00,Sunday
213,166242750.55632183
5925,166242750.5563218
2,1, 1, 1, 0,10, 0.00,60.00,Sunday
213,146393583.0539582
5925,146393583.0539582
2,1, 1, 1, 0,11, 0.00,60.00,Sunday
213,147425639.97573557
5925,147425639.9757356
2,1, 1, 1, 0,12, 0.00,60.00,Sunday
213,128758119.64685704
5925,128758119.64685702
2,1, 1, 1, 0,13, 0.00,60.00,Sunday
213,117799088.73778945
5925,117799088.73778942
2,1, 1, 1, 0,14, 0.00,60.00,Sunday
213,123530095.72572866
5925,123530095.72572866
2,1, 1, 1, 0,15, 0.00,60.00,Sunday
213,102438684.97950014
5925,102438684.97950011
2,1, 1, 1, 0,16, 0.00,60.00,Sunday
213,128171822.61991605
5925,128171822.61991602
2,1, 1, 1, 0,17, 0.00,60.00,Sunday
213,148349830.93137357
5925,148349830.93137357
2,1, 1, 1, 0,18, 0.00,60.00,Sunday
213,188892820.63629815
5925,188892820.63629848
2,1, 1, 1, 0,19, 0.00,60.00,Sunday
213,226863717.7720688
5925,226863717.77206916
2,1, 1, 1, 0,20, 0.00,60.00,Sunday
213,210404807.16851604
5925,210404807.1685164
2,1, 1, 1, 0,21, 0.00,60.00,Sunday
213,213481161.1072477
5925,213481161.10724798
2,1, 1, 1, 0,22, 0.00,60.00,Sunday
213,184265917.20229903
5925,184265917.2022991
2,1, 1, 1, 0,23, 0.00,60.00,Sunday
213,155177267.0086664
5925,155177267.0086664
2,1, 1, 1, 0,24, 0.00,60.00,Sunday
213,116818806.19457382
5925,116818806.19457379
2,2, 1, 2, 0, 1, 0.00,60.00,Holiday
213,85134289.20539442
5925,85134289.20539437
2,2, 1, 2, 0, 2, 0.00,60.00,Holiday
213,88544953.45335579
5925,88544953.45335579
2,2, 1, 2, 0, 3, 0.00,60.00,Holiday
213,79390773.38068652
5925,79390773.38068652
2,2, 1, 2, 0, 4, 0.00,60.00,Holiday
213,75371377.48447543
5925,75371377.4844754
2,2, 1, 2, 0, 5, 0.00,60.00,Holiday
213,90536427.25570968
5925,90536427.25570965
2,2, 1, 2, 0, 6, 0.00,60.00,Holiday
213,117194257.23017852
5925,117194257.23017849
2,2, 1, 2, 0, 7, 0.00,60.00,Holiday
213,182726010.05270588
5925,182726010.0527058
2,2, 1, 2, 0, 8, 0.00,60.00,Holiday
213,186941817.19581443
5925,186941817.19581443
2,2, 1, 2, 0, 9, 0.00,60.00,Holiday
213,166574945.97741413
5925,166574945.97741407
2,2, 1, 2, 0,10, 0.00,60.00,Holiday
213,146728022.01689667
5925,146728022.0168966
2,2, 1, 2, 0,11, 0.00,60.00,Holiday
213,147858647.22461513
5925,147858647.22461516
2,2, 1, 2, 0,12, 0.00,60.00,Holiday
213,134336847.36260664
5925,134336847.36260664
2,2, 1, 2, 0,13, 0.00,60.00,Holiday
213,126038974.11076936
5925,126038974.1107693
2,2, 1, 2, 0,14, 0.00,60.00,Holiday
213,110580582.39398907
5925,110580582.39398903
2,2, 1, 2, 0,15, 0.00,60.00,Holiday
213,115785679.83381414
5925,115785679.83381411
2,2, 1, 2, 0,16, 0.00,60.00,Holiday
213,114701048.55626962
5925,114701048.5562696
2,2, 1, 2, 0,17, 0.00,60.00,Holiday
213,155796467.18227562
5925,155796467.18227562
2,2, 1, 2, 0,18, 0.00,60.00,Holiday
213,185821428.08276698
5925,185821428.0827673
2,2, 1, 2, 0,19, 0.00,60.00,Holiday
213,227097022.8179332
5925,227097022.81793347
2,2, 1, 2, 0,20, 0.00,60.00,Holiday
213,216781587.72289026
5925,216781587.7228906
2,2, 1, 2, 0,21, 0.00,60.00,Holiday
213,203453670.49202484
5925,203453670.49202514
2,2, 1, 2, 0,22, 0.00,60.00,Holiday
213,181306553.0339764
5925,181306553.03397655
2,2, 1, 2, 0,23, 0.00,60.00,Holiday
213,155419397.88228914
5925,155419397.88228908
2,2, 1, 2, 0,24, 0.00,60.00,Holiday
213,117062843.4662403
5925,117062843.4662403
2,3, 1, 3, 0, 1, 0.00,60.00,Tuesday
213,98485071.90960242
5925,98485071.90960239
2,3, 1, 3, 0, 2, 0.00,60.00,Tuesday
213,82719574.00529993
5925,82719574.00529993
2,3, 1, 3, 0, 3, 0.00,60.00,Tuesday
213,74475180.97400318
5925,74475180.97400317
2,3, 1, 3, 0, 4, 0.00,60.00,Tuesday
213,86932989.01547204
5925,86932989.01547201
2,3, 1, 3, 0, 5, 0.00,60.00,Tuesday
213,84725054.3893345
5925,84725054.38933446
2,3, 1, 3, 0, 6, 0.00,60.00,Tuesday
213,117618866.7300694
5925,117618866.73006938
2,3, 1, 3, 0, 7, 0.00,60.00,Tuesday
213,183069382.06941944
5925,183069382.06941944
2,3, 1, 3, 0, 8, 0.00,60.00,Tuesday
213,179851777.10821
5925,179851777.10821
2,3, 1, 3, 0, 9, 0.00,60.00,Tuesday
213,178703010.1555995
5925,178703010.15559947
2,3, 1, 3, 0,10, 0.00,60.00,Tuesday
213,157192925.22533134
5925,157192925.22533137
2,3, 1, 3, 0,11, 0.00,60.00,Tuesday
213,146306456.77917147
5925,146306456.77917144
2,3, 1, 3, 0,12, 0.00,60.00,Tuesday
213,131420939.00598775
5925,131420939.00598772
2,3, 1, 3, 0,13, 0.00,60.00,Tuesday
213,129951808.54805303
5925,129951808.54805304
2,3, 1, 3, 0,14, 0.00,60.00,Tuesday
213,114992763.76717533
5925,114992763.76717532
2,3, 1, 3, 0,15, 0.00,60.00,Tuesday
213,127565423.99784835
5925,127565423.99784833
2,3, 1, 3, 0,16, 0.00,60.00,Tuesday
213,132610133.61816683
5925,132610133.61816683
2,3, 1, 3, 0,17, 0.00,60.00,Tuesday
213,139677993.0963821
5925,139677993.0963821
2,3, 1, 3, 0,18, 0.00,60.00,Tuesday
213,200232259.8392088
5925,200232259.8392091
2,3, 1, 3, 0,19, 0.00,60.00,Tuesday
213,213837283.69027138
5925,213837283.69027174
2,3, 1, 3, 0,20, 0.00,60.00,Tuesday
213,224569484.3183123
5925,224569484.31831264
2,3, 1, 3, 0,21, 0.00,60.00,Tuesday
213,200450603.44999397
5925,200450603.44999424
2,3, 1, 3, 0,22, 0.00,60.00,Tuesday
213,184700051.18506086
5925,184700051.185061
2,3, 1, 3, 0,23, 0.00,60.00,Tuesday
213,155580716.35768992
5925,155580716.3576899
2,3, 1, 3, 0,24, 0.00,60.00,Tuesday
213,117052109.8975626
5925,117052109.8975626
2,4, 1, 4, 0, 1, 0.00,60.00,Wednesday
213,91456414.74601847
5925,91456414.74601842
2,4, 1, 4, 0, 2, 0.00,60.00,Wednesday
213,82821976.36022688
5925,82821976.36022688
2,4, 1, 4, 0, 3, 0.00,60.00,Wednesday
213,87785360.7209828
5925,87785360.7209828
2,4, 1, 4, 0, 4, 0.00,60.00,Wednesday
213,81067945.4942254
5925,81067945.49422538
2,4, 1, 4, 0, 5, 0.00,60.00,Wednesday
213,77855549.880469
5925,77855549.88046898
2,4, 1, 4, 0, 6, 0.00,60.00,Wednesday
213,117667279.45901643
5925,117667279.45901644
2,4, 1, 4, 0, 7, 0.00,60.00,Wednesday
213,183090954.08063716
5925,183090954.0806372
2,4, 1, 4, 0, 8, 0.00,60.00,Wednesday
213,187648636.68828997
5925,187648636.6882899
2,4, 1, 4, 0, 9, 0.00,60.00,Wednesday
213,171183679.8810137
5925,171183679.88101366
2,4, 1, 4, 0,10, 0.00,60.00,Wednesday
213,164800164.63242978
5925,164800164.63242978
2,4, 1, 4, 0,11, 0.00,60.00,Wednesday
213,138524770.81498155
5925,138524770.81498155
2,4, 1, 4, 0,12, 0.00,60.00,Wednesday
213,138059499.8771164
5925,138059499.8771164
2,4, 1, 4, 0,13, 0.00,60.00,Wednesday
213,128995145.65209681
5925,128995145.65209682
2,4, 1, 4, 0,14, 0.00,60.00,Wednesday
213,127352652.97995669
5925,127352652.97995669
2,4, 1, 4, 0,15, 0.00,60.00,Wednesday
213,106266050.06496958
5925,106266050.06496958
2,4, 1, 4, 0,16, 0.00,60.00,Wednesday
213,131902809.6191377
5925,131902809.61913766
2,4, 1, 4, 0,17, 0.00,60.00,Wednesday
213,159616980.05740404
5925,159616980.05740404
2,4, 1, 4, 0,18, 0.00,60.00,Wednesday
213,186126023.062
5925,186126023.06200036
2,4, 1, 4, 0,19, 0.00,60.00,Wednesday
213,226913502.2367871
5925,226913502.2367874
2,4, 1, 4, 0,20, 0.00,60.00,Wednesday
213,202807391.11986527
5925,202807391.1198656
2,4, 1, 4, 0,21, 0.00,60.00,Wednesday
213,219352963.43042368
5925,219352963.43042403
2,4, 1, 4, 0,22, 0.00,60.00,Wednesday
213,178584549.9125949
5925,178584549.91259503
2,4, 1, 4, 0,23, 0.00,60.00,Wednesday
213,141728129.59034014
5925,141728129.5903401
2,4, 1, 4, 0,24, 0.00,60.00,Wednesday
213,129972379.57054815
5925,129972379.57054812
2,5, 1, 5, 0, 1, 0.00,60.00,Thursday
213,85070859.7304044
5925,85070859.73040438
2,5, 1, 5, 0, 2, 0.00,60.00,Thursday
213,95488097.2700612
5925,95488097.2700612
2,5, 1, 5, 0, 3, 0.00,60.00,Thursday
213,74203844.4382741
5925,74203844.43827409
2,5, 1, 5, 0, 4, 0.00,60.00,Thursday
213,73560485.29772234
5925,73560485.29772232
2,5, 1, 5, 0, 5, 0.00,60.00,Thursday
213,97393916.69605488
5925,97393916.69605485
2,5, 1, 5, 0, 6, 0.00,60.00,Thursday
213,117226156.79269147
5925,117226156.79269144
2,5, 1, 5, 0, 7, 0.00,60.00,Thursday
213,182853949.33603984
5925,182853949.33603984
2,5, 1, 5, 0, 8, 0.00,60.00,Thursday
213,179716087.3903909
5925,179716087.39039087
2,5, 1, 5, 0, 9, 0.00,60.00,Thursday
213,178201240.1666188
5925,178201240.16661876
2,5, 1, 5, 0,10, 0.00,60.00,Thursday
213,142456154.7511137
5925,142456154.7511137
2,5, 1, 5, 0,11, 0.00,60.00,Thursday
213,158222140.22106656
5925,158222140.22106656
2,5, 1, 5, 0,12, 0.00,60.00,Thursday
213,129508057.33367072
5925,129508057.33367074
2,5, 1, 5, 0,13, 0.00,60.00,Thursday
213,121889022.78283317
5925,121889022.78283317
2,5, 1, 5, 0,14, 0.00,60.00,Thursday
213,118901578.2678137
5925,118901578.26781368
2,5, 1, 5, 0,15, 0.00,60.00,Thursday
213,125236731.15131205
5925,125236731.15131201
2,5, 1, 5, 0,16, 0.00,60.00,Thursday
213,116927156.2642367
5925,116927156.26423669
2,5, 1, 5, 0,17, 0.00,60.00,Thursday
213,151008027.9933795
5925,151008027.99337947
2,5, 1, 5, 0,18, 0.00,60.00,Thursday
213,185046610.07505518
5925,185046610.0750555
2,5, 1, 5, 0,19, 0.00,60.00,Thursday
213,226111454.978012
5925,226111454.97801235
2,5, 1, 5, 0,20, 0.00,60.00,Thursday
213,223330911.87487662
5925,223330911.87487692
2,5, 1, 5, 0,21, 0.00,60.00,Thursday
213,199333349.87972614
5925,199333349.8797264
2,5, 1, 5, 0,22, 0.00,60.00,Thursday
213,183612539.03354487
5925,183612539.03354487
2,5, 1, 5, 0,23, 0.00,60.00,Thursday
213,154371742.08370996
5925,154371742.08370993
2,5, 1, 5, 0,24, 0.00,60.00,Thursday
213,115725922.39978525
5925,115725922.39978525
2,6, 1, 6, 0, 1, 0.00,60.00,Friday
213,87634105.07304788
5925,87634105.07304785
2,6, 1, 6, 0, 2, 0.00,60.00,Friday
213,83988621.7259057
5925,83988621.7259057
2,6, 1, 6, 0, 3, 0.00,60.00,Friday
213,80296247.11882755
5925,80296247.11882754
2,6, 1, 6, 0, 4, 0.00,60.00,Friday
213,85811380.71406294
5925,85811380.71406293
2,6, 1, 6, 0, 5, 0.00,60.00,Friday
213,77626364.19676948
5925,77626364.19676946
2,6, 1, 6, 0, 6, 0.00,60.00,Friday
213,115362209.73487653
5925,115362209.7348765
2,6, 1, 6, 0, 7, 0.00,60.00,Friday
213,184446135.5029621
5925,184446135.50296208
2,6, 1, 6, 0, 8, 0.00,60.00,Friday
213,183985839.10835937
5925,183985839.10835934
2,6, 1, 6, 0, 9, 0.00,60.00,Friday
213,169551986.002376
5925,169551986.002376
2,6, 1, 6, 0,10, 0.00,60.00,Friday
213,162733699.68228602
5925,162733699.682286
2,6, 1, 6, 0,11, 0.00,60.00,Friday
213,136539745.1680494
5925,136539745.16804937
2,6, 1, 6, 0,12, 0.00,60.00,Friday
213,136511348.91127807
5925,136511348.91127807
2,6, 1, 6, 0,13, 0.00,60.00,Friday
213,129008840.82410714
5925,129008840.82410714
2,6, 1, 6, 0,14, 0.00,60.00,Friday
213,115524758.73436278
5925,115524758.7343628
2,6, 1, 6, 0,15, 0.00,60.00,Friday
213,127705681.13353996
5925,127705681.13353994
2,6, 1, 6, 0,16, 0.00,60.00,Friday
213,127003258.74083327
5925,127003258.74083325
2,6, 1, 6, 0,17, 0.00,60.00,Friday
213,146955655.2594261
5925,146955655.2594261
2,6, 1, 6, 0,18, 0.00,60.00,Friday
213,198395863.8870714
5925,198395863.88707173
2,6, 1, 6, 0,19, 0.00,60.00,Friday
213,212214289.14624172
5925,212214289.14624205
2,6, 1, 6, 0,20, 0.00,60.00,Friday
213,217353704.36000803
5925,217353704.36000833
2,6, 1, 6, 0,21, 0.00,60.00,Friday
213,204663650.2221303
5925,204663650.22213063
2,6, 1, 6, 0,22, 0.00,60.00,Friday
213,175883818.43872428
5925,175883818.43872428
2,6, 1, 6, 0,23, 0.00,60.00,Friday
213,157627493.7972678
5925,157627493.79726776
2,6, 1, 6, 0,24, 0.00,60.00,Friday
213,114455851.42209303
5925,114455851.422093
2,7, 1, 7, 0, 1, 0.00,60.00,Saturday
213,94406738.42870411
5925,94406738.42870408
2,7, 1, 7, 0, 2, 0.00,60.00,Saturday
213,81554943.47432086
5925,81554943.47432086
2,7, 1, 7, 0, 3, 0.00,60.00,Saturday
213,83007184.22005562
5925,83007184.22005561
2,7, 1, 7, 0, 4, 0.00,60.00,Saturday
213,79844685.10819422
5925,79844685.1081942
2,7, 1, 7, 0, 5, 0.00,60.00,Saturday
213,80316497.00247653
5925,80316497.00247653
2,7, 1, 7, 0, 6, 0.00,60.00,Saturday
213,123547725.08519837
5925,123547725.08519836
2,7, 1, 7, 0, 7, 0.00,60.00,Saturday
213,175289193.66406327
5925,175289193.66406327
2,7, 1, 7, 0, 8, 0.00,60.00,Saturday
213,184822852.93806863
5925,184822852.93806863
2,7, 1, 7, 0, 9, 0.00,60.00,Saturday
213,167610410.26707187
5925,167610410.26707184
2,7, 1, 7, 0,10, 0.00,60.00,Saturday
213,156696571.50949317
5925,156696571.50949317
2,7, 1, 7, 0,11, 0.00,60.00,Saturday
213,135203631.29220435
5925,135203631.29220432
2,7, 1, 7, 0,12, 0.00,60.00,Saturday
213,129891238.1777496
5925,129891238.17774957
2,7, 1, 7, 0,13, 0.00,60.00,Saturday
213,126367296.89297098
5925,126367296.89297095
2,7, 1, 7, 0,14, 0.00,60.00,Saturday
213,119672364.27305977
5925,119672364.27305974
2,7, 1, 7, 0,15, 0.00,60.00,Saturday
213,102496555.15554158
5925,102496555.15554158
2,7, 1, 7, 0,16, 0.00,60.00,Saturday
213,126227568.08267285
5925,126227568.08267285
2,7, 1, 7, 0,17, 0.00,60.00,Saturday
213,148623694.11675152
5925,148623694.11675152
2,7, 1, 7, 0,18, 0.00,60.00,Saturday
213,186537548.24196666
5925,186537548.24196696
2,7, 1, 7, 0,19, 0.00,60.00,Saturday
213,224411869.99044856
5925,224411869.9904489
2,7, 1, 7, 0,20, 0.00,60.00,Saturday
213,207408989.604864
5925,207408989.60486433
2,7, 1, 7, 0,21, 0.00,60.00,Saturday
213,210555126.94527808
5925,210555126.94527838
2,7, 1, 7, 0,22, 0.00,60.00,Saturday
213,181871881.66151005
5925,181871881.66151005
2,7, 1, 7, 0,23, 0.00,60.00,Saturday
213,151167061.91139352
5925,151167061.91139355
2,7, 1, 7, 0,24, 0.00,60.00,Saturday
213,117271713.00766686
5925,117271713.00766683
2,8, 1, 8, 0, 1, 0.00,60.00,Sunday
213,86328050.62037544
5925,86328050.62037542
2,8, 1, 8, 0, 2, 0.00,60.00,Sunday
213,87432078.57230344
5925,87432078.57230344
2,8, 1, 8, 0, 3, 0.00,60.00,Sunday
213,80208691.65272257
5925,80208691.65272254
2,8, 1, 8, 0, 4, 0.00,60.00,Sunday
213,74464473.86393315
5925,74464473.86393312
2,8, 1, 8, 0, 5, 0.00,60.00,Sunday
213,93229536.82498398
5925,93229536.82498395
2,8, 1, 8, 0, 6, 0.00,60.00,Sunday
213,116504198.58836357
5925,116504198.58836356
2,8, 1, 8, 0, 7, 0.00,60.00,Sunday
213,181336197.23236597
5925,181336197.23236597
2,8, 1, 8, 0, 8, 0.00,60.00,Sunday
213,183673804.57112762
5925,183673804.57112762
2,8, 1, 8, 0, 9, 0.00,60.00,Sunday
213,167830219.93189567
5925,167830219.93189564
2,8, 1, 8, 0,10, 0.00,60.00,Sunday
213,148510445.5302601
5925,148510445.5302601
2,8, 1, 8, 0,11, 0.00,60.00,Sunday
213,144255022.5919116
5925,144255022.59191158
2,8, 1, 8, 0,12, 0.00,60.00,Sunday
213,129651762.62398082
5925,129651762.6239808
2,8, 1, 8, 0,13, 0.00,60.00,Sunday
213,125065944.67400748
5925,125065944.67400746
2,8, 1, 8, 0,14, 0.00,60.00,Sunday
213,121246741.28451796
5925,121246741.28451794
2,8, 1, 8, 0,15, 0.00,60.00,Sunday
213,119019556.22387893
5925,119019556.2238789
2,8, 1, 8, 0,16, 0.00,60.00,Sunday
213,124295131.41984537
5925,124295131.41984534
2,8, 1, 8, 0,17, 0.00,60.00,Sunday
213,155273530.79103816
5925,155273530.79103813
2,8, 1, 8, 0,18, 0.00,60.00,Sunday
213,195706492.04931965
5925,195706492.04931998
2,8, 1, 8, 0,19, 0.00,60.00,Sunday
213,217054086.80822358
5925,217054086.80822396
2,8, 1, 8, 0,20, 0.00,60.00,Sunday
213,214153997.1111754
5925,214153997.11117572
2,8, 1, 8, 0,21, 0.00,60.00,Sunday
213,206285617.47669697
5925,206285617.4766973
2,8, 1, 8, 0,22, 0.00,60.00,Sunday
213,181383053.1006791
5925,181383053.10067904
2,8, 1, 8, 0,23, 0.00,60.00,Sunday
213,153883219.50216174
5925,153883219.50216174
2,8, 1, 8, 0,24, 0.00,60.00,Sunday
213,115190447.66673051
5925,115190447.66673051
2,9, 1, 9, 0, 1, 0.00,60.00,Monday
213,90477630.42701258
5925,90477630.42701255
2,9, 1, 9, 0, 2, 0.00,60.00,Monday
213,82019138.20450029
5925,82019138.20450026
2,9, 1, 9, 0, 3, 0.00,60.00,Monday
213,85210060.67107496
5925,85210060.67107494
2,9, 1, 9, 0, 4, 0.00,60.00,Monday
213,73294665.51690972
5925,73294665.5169097
2,9, 1, 9, 0, 5, 0.00,60.00,Monday
213,88709886.74402362
5925,88709886.74402362
2,9, 1, 9, 0, 6, 0.00,60.00,Monday
213,113764330.14849609
5925,113764330.14849606
2,9, 1, 9, 0, 7, 0.00,60.00,Monday
213,185037232.83543065
5925,185037232.83543062
2,9, 1, 9, 0, 8, 0.00,60.00,Monday
213,179537624.19623688
5925,179537624.19623688
2,9, 1, 9, 0, 9, 0.00,60.00,Monday
213,175400932.58914232
5925,175400932.5891423
2,9, 1, 9, 0,10, 0.00,60.00,Monday
213,152817586.25219896
5925,152817586.25219893
2,9, 1, 9, 0,11, 0.00,60.00,Monday
213,148815663.28128982
5925,148815663.2812898
2,9, 1, 9, 0,12, 0.00,60.00,Monday
213,133218903.49532954
5925,133218903.49532954
2,9, 1, 9, 0,13, 0.00,60.00,Monday
213,140159072.1072322
5925,140159072.1072322
2,9, 1, 9, 0,14, 0.00,60.00,Monday
213,131453550.84081882
5925,131453550.84081882
2,9, 1, 9, 0,15, 0.00,60.00,Monday
213,133219246.0521439
5925,133219246.05214389
2,9, 1, 9, 0,16, 0.00,60.00,Monday
213,140165354.71250015
5925,140165354.71250015
2,9, 1, 9, 0,17, 0.00,60.00,Monday
213,163551598.16292405
5925,163551598.16292405
2,9, 1, 9, 0,18, 0.00,60.00,Monday
213,190888360.25253868
5925,190888360.25253904
2,9, 1, 9, 0,19, 0.00,60.00,Monday
213,227192389.5814396
5925,227192389.58143997
2,9, 1, 9, 0,20, 0.00,60.00,Monday
213,217053134.35090825
5925,217053134.3509086
2,9, 1, 9, 0,21, 0.00,60.00,Monday
213,207085513.41816232
5925,207085513.41816267
2,9, 1, 9, 0,22, 0.00,60.00,Monday
213,183685305.49757913
5925,183685305.49757913
2,9, 1, 9, 0,23, 0.00,60.00,Monday
213,152925833.38928568
5925,152925833.38928568
2,9, 1, 9, 0,24, 0.00,60.00,Monday
213,116103204.89553083
5925,116103204.89553079
2,10, 1,10, 0, 1, 0.00,60.00,Tuesday
213,84451941.84226294
5925,84451941.84226292
2,10, 1,10, 0, 2, 0.00,60.00,Tuesday
213,86313580.58953369
5925,86313580.58953367
2,10, 1,10, 0, 3, 0.00,60.00,Tuesday
213,74665354.25154638
5925,74665354.25154635
2,10, 1,10, 0, 4, 0.00,60.00,Tuesday
213,83707123.98785757
5925,83707123.98785755
2,10, 1,10, 0, 5, 0.00,60.00,Tuesday
213,84193206.73280443
5925,84193206.73280442
2,10, 1,10, 0, 6, 0.00,60.00,Tuesday
213,115382473.0946439
5925,115382473.09464389
2,10, 1,10, 0, 7, 0.00,60.00,Tuesday
213,182947733.2285253
5925,182947733.22852528
2,10, 1,10, 0, 8, 0.00,60.00,Tuesday
213,185785528.4360789
5925,185785528.43607888
2,10, 1,10, 0, 9, 0.00,60.00,Tuesday
213,169770221.7633616
5925,169770221.7633616
2,10, 1,10, 0,10, 0.00,60.00,Tuesday
213,155796923.95748115
5925,155796923.95748112
2,10, 1,10, 0,11, 0.00,60.00,Tuesday
213,145972826.22413784
5925,145972826.2241378
2,10, 1,10, 0,12, 0.00,60.00,Tuesday
213,142367880.6811439
5925,142367880.68114388
2,10, 1,10, 0,13, 0.00,60.00,Tuesday
213,139741152.1426019
5925,139741152.14260188
2,10, 1,10, 0,14, 0.00,60.00,Tuesday
213,130901559.49244161
5925,130901559.4924416
2,10, 1,10, 0,15, 0.00,60.00,Tuesday
213,138783677.57675496
5925,138783677.57675496
2,10, 1,10, 0,16, 0.00,60.00,Tuesday
213,136427068.87344575
5925,136427068.8734457
2,10, 1,10, 0,17, 0.00,60.00,Tuesday
213,163302295.2830528
5925,163302295.28305283
2,10, 1,10, 0,18, 0.00,60.00,Tuesday
213,207260717.83213463
5925,207260717.83213493
2,10, 1,10, 0,19, 0.00,60.00,Tuesday
213,217439246.5952789
5925,217439246.59527916
2,10, 1,10, 0,20, 0.00,60.00,Tuesday
213,224060309.50861195
5925,224060309.50861228
2,10, 1,10, 0,21, 0.00,60.00,Tuesday
213,204122017.4308338
5925,204122017.4308341
2,10, 1,10, 0,22, 0.00,60.00,Tuesday
213,180135251.62009272
5925,180135251.62009275
2,10, 1,10, 0,23, 0.00,60.00,Tuesday
213,157176466.84656155
5925,157176466.84656158
2,10, 1,10, 0,24, 0.00,60.00,Tuesday
213,115108143.17991108
5925,115108143.17991105
2,11, 1,11, 0, 1, 0.00,60.00,Wednesday
213,92436161.39126891
5925,92436161.39126888
2,11, 1,11, 0, 2, 0.00,60.00,Wednesday
213,78481043.1597083
5925,78481043.15970829
2,11, 1,11, 0, 3, 0.00,60.00,Wednesday
213,79829945.89926541
5925,79829945.89926541
2,11, 1,11, 0, 4, 0.00,60.00,Wednesday
213,81844218.3854247
5925,81844218.38542467
2,11, 1,11, 0, 5, 0.00,60.00,Wednesday
213,78762596.19744265
5925,78762596.19744262
2,11, 1,11, 0, 6, 0.00,60.00,Wednesday
213,113421550.59698175
5925,113421550.59698173
2,11, 1,11, 0, 7, 0.00,60.00,Wednesday
213,182768782.9664313
5925,182768782.9664313
2,11, 1,11, 0, 8, 0.00,60.00,Wednesday
213,181854458.64342892
5925,181854458.64342892
2,11, 1,11, 0, 9, 0.00,60.00,Wednesday
213,170804733.4599379
5925,170804733.45993787
2,11, 1,11, 0,10, 0.00,60.00,Wednesday
213,161694358.68583146
5925,161694358.68583146
2,11, 1,11, 0,11, 0.00,60.00,Wednesday
213,138950231.37757057
5925,138950231.37757057
2,11, 1,11, 0,12, 0.00,60.00,Wednesday
213,133347574.9889037
5925,133347574.98890366
2,11, 1,11, 0,13, 0.00,60.00,Wednesday
213,129627548.07104185
5925,129627548.07104185
2,11, 1,11, 0,14, 0.00,60.00,Wednesday
213,124002465.52339768
5925,124002465.52339767
2,11, 1,11, 0,15, 0.00,60.00,Wednesday
213,109479797.44809362
5925,109479797.44809362
2,11, 1,11, 0,16, 0.00,60.00,Wednesday
213,130105590.19295014
5925,130105590.1929501
2,11, 1,11, 0,17, 0.00,60.00,Wednesday
213,152629714.02542573
5925,152629714.0254257
2,11, 1,11, 0,18, 0.00,60.00,Wednesday
213,187345281.8967564
5925,187345281.8967567
2,11, 1,11, 0,19, 0.00,60.00,Wednesday
213,224019085.98025054
5925,224019085.9802509
2,11, 1,11, 0,20, 0.00,60.00,Wednesday
213,208614594.06611496
5925,208614594.06611532
2,11, 1,11, 0,21, 0.00,60.00,Wednesday
213,213897737.76325327
5925,213897737.76325363
2,11, 1,11, 0,22, 0.00,60.00,Wednesday
213,179106210.4502458
5925,179106210.4502458
2,11, 1,11, 0,23, 0.00,60.00,Wednesday
213,155126551.63739032
5925,155126551.6373903
2,11, 1,11, 0,24, 0.00,60.00,Wednesday
213,116156061.0510351
5925,116156061.0510351
2,12, 1,12, 0, 1, 0.00,60.00,Thursday
213,82794520.1796291
5925,82794520.1796291
2,12, 1,12, 0, 2, 0.00,60.00,Thursday
213,90712573.4515119
5925,90712573.45151189
2,12, 1,12, 0, 3, 0.00,60.00,Thursday
213,76380829.33529562
5925,76380829.3352956
2,12, 1,12, 0, 4, 0.00,60.00,Thursday
213,75919272.82222866
5925,75919272.82222863
2,12, 1,12, 0, 5, 0.00,60.00,Thursday
213,90845199.89190528
5925,90845199.89190526
2,12, 1,12, 0, 6, 0.00,60.00,Thursday
213,114313197.79239126
5925,114313197.79239126
2,12, 1,12, 0, 7, 0.00,60.00,Thursday
213,183657555.42207393
5925,183657555.42207393
2,12, 1,12, 0, 8, 0.00,60.00,Thursday
213,184480677.39265132
5925,184480677.39265132
2,12, 1,12, 0, 9, 0.00,60.00,Thursday
213,170015663.63496223
5925,170015663.6349622
2,12, 1,12, 0,10, 0.00,60.00,Thursday
213,154303517.70652783
5925,154303517.7065278
2,12, 1,12, 0,11, 0.00,60.00,Thursday
213,147824861.6117789
5925,147824861.6117789
2,12, 1,12, 0,12, 0.00,60.00,Thursday
213,135221845.54830015
5925,135221845.54830015
2,12, 1,12, 0,13, 0.00,60.00,Thursday
213,128170877.90252826
5925,128170877.90252823
2,12, 1,12, 0,14, 0.00,60.00,Thursday
213,114703294.51198831
5925,114703294.51198833
2,12, 1,12, 0,15, 0.00,60.00,Thursday
213,119400257.65174502
5925,119400257.65174499
2,12, 1,12, 0,16, 0.00,60.00,Thursday
213,121371793.73744431
5925,121371793.73744428
2,12, 1,12, 0,17, 0.00,60.00,Thursday
213,153879505.41778278
5925,153879505.41778275
2,12, 1,12, 0,18, 0.00,60.00,Thursday
213,197350651.1019048
5925,197350651.10190517
2,12, 1,12, 0,19, 0.00,60.00,Thursday
213,214623357.92012247
5925,214623357.92012283
2,12, 1,12, 0,20, 0.00,60.00,Thursday
213,216919820.26081073
5925,216919820.26081106
2,12, 1,12, 0,21, 0.00,60.00,Thursday
213,206028747.65387893
5925,206028747.65387926
2,12, 1,12, 0,22, 0.00,60.00,Thursday
213,178252424.0941351
5925,178252424.0941351
2,12, 1,12, 0,23, 0.00,60.00,Thursday
213,155116549.33973664
5925,155116549.33973658
2,12, 1,12, 0,24, 0.00,60.00,Thursday
213,115846953.90569569
5925,115846953.90569569
2,13, 1,13, 0, 1, 0.00,60.00,Friday
213,94527777.86943445
5925,94527777.86943445
2,13, 1,13, 0, 2, 0.00,60.00,Friday
213,81470825.91934855
5925,81470825.91934855
2,13, 1,13, 0, 3, 0.00,60.00,Friday
213,86385185.43127264
5925,86385185.43127261
2,13, 1,13, 0, 4, 0.00,60.00,Friday
213,74442150.15254548
5925,74442150.15254547
2,13, 1,13, 0, 5, 0.00,60.00,Friday
213,84337221.69089577
5925,84337221.69089575
2,13, 1,13, 0, 6, 0.00,60.00,Friday
213,121375850.9082408
5925,121375850.9082408
2,13, 1,13, 0, 7, 0.00,60.00,Friday
213,177715790.1549634
5925,177715790.15496337
2,13, 1,13, 0, 8, 0.00,60.00,Friday
213,187766529.16402265
5925,187766529.16402265
2,13, 1,13, 0, 9, 0.00,60.00,Friday
213,168016656.76294467
5925,168016656.76294467
2,13, 1,13, 0,10, 0.00,60.00,Friday
213,159056621.20475888
5925,159056621.20475888
2,13, 1,13, 0,11, 0.00,60.00,Friday
213,146855771.20860663
5925,146855771.2086066
2,13, 1,13, 0,12, 0.00,60.00,Friday
213,137767421.6234957
5925,137767421.6234957
2,13, 1,13, 0,13, 0.00,60.00,Friday
213,120329243.78409016
5925,120329243.78409016
2,13, 1,13, 0,14, 0.00,60.00,Friday
213,124958361.40206522
5925,124958361.4020652
2,13, 1,13, 0,15, 0.00,60.00,Friday
213,113191563.47417995
5925,113191563.47417992
2,13, 1,13, 0,16, 0.00,60.00,Friday
213,125980528.71831132
5925,125980528.71831131
2,13, 1,13, 0,17, 0.00,60.00,Friday
213,154500942.69671813
5925,154500942.6967181
2,13, 1,13, 0,18, 0.00,60.00,Friday
213,188933644.29408044
5925,188933644.29408076
2,13, 1,13, 0,19, 0.00,60.00,Friday
213,224882323.79241613
5925,224882323.79241648
2,13, 1,13, 0,20, 0.00,60.00,Friday
213,216222688.75697246
5925,216222688.75697276
2,13, 1,13, 0,21, 0.00,60.00,Friday
213,206529130.5575223
5925,206529130.5575226
2,13, 1,13, 0,22, 0.00,60.00,Friday
213,179854322.68545002
5925,179854322.68545005
2,13, 1,13, 0,23, 0.00,60.00,Friday
213,156334106.52511436
5925,156334106.52511436
2,13, 1,13, 0,24, 0.00,60.00,Friday
213,115190910.7949041
5925,115190910.79490407
2,14, 1,14, 0, 1, 0.00,60.00,Saturday
213,89611132.12836486
5925,89611132.12836482
2,14, 1,14, 0, 2, 0.00,60.00,Saturday
213,86257807.87661877
5925,86257807.87661876
2,14, 1,14, 0, 3, 0.00,60.00,Saturday
213,75509277.72923936
5925,75509277.72923934
2,14, 1,14, 0, 4, 0.00,60.00,Saturday
213,87970298.1804783
5925,87970298.18047827
2,14, 1,14, 0, 5, 0.00,60.00,Saturday
213,81334070.67769915
5925,81334070.67769913
2,14, 1,14, 0, 6, 0.00,60.00,Saturday
213,115933619.60768843
5925,115933619.60768838
2,14, 1,14, 0, 7, 0.00,60.00,Saturday
213,184149748.97755858
5925,184149748.97755852
2,14, 1,14, 0, 8, 0.00,60.00,Saturday
213,184022715.8984132
5925,184022715.8984132
2,14, 1,14, 0, 9, 0.00,60.00,Saturday
213,166924696.1795263
5925,166924696.1795263
2,14, 1,14, 0,10, 0.00,60.00,Saturday
213,159740167.42593443
5925,159740167.42593443
2,14, 1,14, 0,11, 0.00,60.00,Saturday
213,135261810.0286747
5925,135261810.02867466
2,14, 1,14, 0,12, 0.00,60.00,Saturday
213,131696913.62767804
5925,131696913.62767804
2,14, 1,14, 0,13, 0.00,60.00,Saturday
213,125146003.51836056
5925,125146003.51836053
2,14, 1,14, 0,14, 0.00,60.00,Saturday
213,120978876.0477344
5925,120978876.04773435
2,14, 1,14, 0,15, 0.00,60.00,Saturday
213,107931472.19014572
5925,107931472.1901457
2,14, 1,14, 0,16, 0.00,60.00,Saturday
213,126659911.1228742
5925,126659911.12287419
2,14, 1,14, 0,17, 0.00,60.00,Saturday
213,148389308.79107046
5925,148389308.79107043
2,14, 1,14, 0,18, 0.00,60.00,Saturday
213,188690618.146254
5925,188690618.1462543
2,14, 1,14, 0,19, 0.00,60.00,Saturday
213,225915463.06110606
5925,225915463.0611064
2,14, 1,14, 0,20, 0.00,60.00,Saturday
213,207936819.36718237
5925,207936819.3671827
2,14, 1,14, 0,21, 0.00,60.00,Saturday
213,215237682.6885404
5925,215237682.68854076
2,14, 1,14, 0,22, 0.00,60.00,Saturday
213,181643471.4543109
5925,181643471.454311
2,14, 1,14, 0,23, 0.00,60.00,Saturday
213,147691792.2947486
5925,147691792.29474857
2,14, 1,14, 0,24, 0.00,60.00,Saturday
213,123233801.26464692
5925,123233801.26464689
2,15, 1,15, 0, 1, 0.00,60.00,Sunday
213,83685180.2245852
5925,83685180.22458519
2,15, 1,15, 0, 2, 0.00,60.00,Sunday
213,88934837.14032643
5925,88934837.1403264
2,15, 1,15, 0, 3, 0.00,60.00,Sunday
213,79950864.38173707
5925,79950864.38173702
2,15, 1,15, 0, 4, 0.00,60.00,Sunday
213,75870116.25741772
5925,75870116.2574177
2,15, 1,15, 0, 5, 0.00,60.00,Sunday
213,93596797.70552047
5925,93596797.70552047
2,15, 1,15, 0, 6, 0.00,60.00,Sunday
213,115564369.2597275
5925,115564369.25972745
2,15, 1,15, 0, 7, 0.00,60.00,Sunday
213,184191519.9934999
5925,184191519.99349988
2,15, 1,15, 0, 8, 0.00,60.00,Sunday
213,184123636.45723465
5925,184123636.45723465
2,15, 1,15, 0, 9, 0.00,60.00,Sunday
213,168404755.94313246
5925,168404755.94313243
2,15, 1,15, 0,10, 0.00,60.00,Sunday
213,146073252.01125014
5925,146073252.01125014
2,15, 1,15, 0,11, 0.00,60.00,Sunday
213,149120281.69094858
5925,149120281.69094855
2,15, 1,15, 0,12, 0.00,60.00,Sunday
213,131103307.56209762
5925,131103307.56209762
2,15, 1,15, 0,13, 0.00,60.00,Sunday
213,127372029.44961376
5925,127372029.44961375
2,15, 1,15, 0,14, 0.00,60.00,Sunday
213,109185594.4731041
5925,109185594.47310409
2,15, 1,15, 0,15, 0.00,60.00,Sunday
213,119937379.49220109
5925,119937379.49220109
2,15, 1,15, 0,16, 0.00,60.00,Sunday
213,117784837.49789509
5925,117784837.49789509
2,15, 1,15, 0,17, 0.00,60.00,Sunday
213,146932594.4906415
5925,146932594.4906415
2,15, 1,15, 0,18, 0.00,60.00,Sunday
213,196268591.90036622
5925,196268591.90036654