Program Version,EnergyPlus, Version 26.1.0-6f2e40d102, YMD=2026.04.14 19:48
1,5,Environment Title[],Latitude[deg],Longitude[deg],Time Zone[],Elevation[m]
2,8,Day of Simulation[],Month[],Day of Month[],DST Indicator[1=yes 0=no],Hour[],StartMinute[],EndMinute[],DayType
3,5,Cumulative Day of Simulation[],Month[],Day of Month[],DST Indicator[1=yes 0=no],DayType  ! When Daily Meters Requested
4,2,Cumulative Days of Simulation[],Month[]  ! When Monthly Meters Requested
5,1,Cumulative Days of Simulation[] ! When Run Period Meters Requested
6,1,Calendar Year of Simulation[] ! When Annual Meters Requested
213,1,Electricity:Facility [J] !Hourly
5925,1,ElectricityNet:Facility [J] !Hourly
End of Data Dictionary
1,RUNPERIOD 1,  28.11, 112.79,   8.00, 120.00
2,1, 1, 1, 0, 1, 0.00,60.00,Sunday
213,89314164.76782537
5925,89314164.76782537
2,1, 1, 1, 0, 2, 0.00,60.00,Sunday
213,93111183.62606561
5925,93111183.62606564
2,1, 1, 1, 0, 3, 0.00,60.00,Sunday
213,98024916.03730576
5925,98024916.03730577
2,1, 1, 1, 0, 4, 0.00,60.00,Sunday
213,91367013.58963245
5925,91367013.58963245
2,1, 1, 1, 0, 5, 0.00,60.00,Sunday
213,101334082.1543969
5925,101334082.1543969
2,1, 1, 1, 0, 6, 0.00,60.00,Sunday
213,128011173.76376973
5925,128011173.76376972
2,1, 1, 1, 0, 7, 0.00,60.00,Sunday
213,193301998.84610528
5925,193301998.8461052
2,1, 1, 1, 0, 8, 0.00,60.00,Sunday
213,197237854.00303197
5925,197237854.003032
2,1, 1, 1, 0, 9, 0.00,60.00,Sunday
213,177151068.01728207
5925,177151068.01728207
2,1, 1, 1, 0,10, 0.00,60.00,Sunday
213,157486521.6327754
5925,157486521.63277537
2,1, 1, 1, 0,11, 0.00,60.00,Sunday
213,158433774.9736038
5925,158433774.97360379
2,1, 1, 1, 0,12, 0.00,60.00,Sunday
213,140204753.59407747
5925,140204753.59407747
2,1, 1, 1, 0,13, 0.00,60.00,Sunday
213,129214037.91879092
5925,129214037.9187909
2,1, 1, 1, 0,14, 0.00,60.00,Sunday
213,134617147.86318505
5925,134617147.86318502
2,1, 1, 1, 0,15, 0.00,60.00,Sunday
213,114001775.71903518
5925,114001775.71903516
2,1, 1, 1, 0,16, 0.00,60.00,Sunday
213,139865342.38508406
5925,139865342.38508406
2,1, 1, 1, 0,17, 0.00,60.00,Sunday
213,159695838.46378207
5925,159695838.46378213
2,1, 1, 1, 0,18, 0.00,60.00,Sunday
213,200300330.25223044
5925,200300330.2522308
2,1, 1, 1, 0,19, 0.00,60.00,Sunday
213,238270320.4328375
5925,238270320.4328378
2,1, 1, 1, 0,20, 0.00,60.00,Sunday
213,221841584.55534068
5925,221841584.55534098
2,1, 1, 1, 0,21, 0.00,60.00,Sunday
213,224946877.10044125
5925,224946877.10044158
2,1, 1, 1, 0,22, 0.00,60.00,Sunday
213,195766142.12820083
5925,195766142.128201
2,1, 1, 1, 0,23, 0.00,60.00,Sunday
213,166662290.7301996
5925,166662290.7301996
2,1, 1, 1, 0,24, 0.00,60.00,Sunday
213,128614034.75400975
5925,128614034.75400975
2,2, 1, 2, 0, 1, 0.00,60.00,Holiday
213,96898045.68115814
5925,96898045.68115813
2,2, 1, 2, 0, 2, 0.00,60.00,Holiday
213,100017065.85288768
5925,100017065.85288769
2,2, 1, 2, 0, 3, 0.00,60.00,Holiday
213,91839511.25410134
5925,91839511.25410134
2,2, 1, 2, 0, 4, 0.00,60.00,Holiday
213,85808381.32790989
5925,85808381.32790989
2,2, 1, 2, 0, 5, 0.00,60.00,Holiday
213,102017500.45700358
5925,102017500.4570036
2,2, 1, 2, 0, 6, 0.00,60.00,Holiday
213,128704381.14594612
5925,128704381.14594612
2,2, 1, 2, 0, 7, 0.00,60.00,Holiday
213,194500676.93844545
5925,194500676.93844542
2,2, 1, 2, 0, 8, 0.00,60.00,Holiday
213,198640756.43481088
5925,198640756.43481088
2,2, 1, 2, 0, 9, 0.00,60.00,Holiday
213,178233074.71384662
5925,178233074.71384662
2,2, 1, 2, 0,10, 0.00,60.00,Holiday
213,158488211.7303735
5925,158488211.7303735
2,2, 1, 2, 0,11, 0.00,60.00,Holiday
213,159612978.08758846
5925,159612978.08758846
2,2, 1, 2, 0,12, 0.00,60.00,Holiday
213,146091508.13787776
5925,146091508.13787776
2,2, 1, 2, 0,13, 0.00,60.00,Holiday
213,137819292.2316048
5925,137819292.2316048
2,2, 1, 2, 0,14, 0.00,60.00,Holiday
213,122374683.05665113
5925,122374683.05665112
2,2, 1, 2, 0,15, 0.00,60.00,Holiday
213,127331331.64171726
5925,127331331.64171728
2,2, 1, 2, 0,16, 0.00,60.00,Holiday
213,126057624.6659383
5925,126057624.66593833
2,2, 1, 2, 0,17, 0.00,60.00,Holiday
213,167211913.00179362
5925,167211913.00179374
2,2, 1, 2, 0,18, 0.00,60.00,Holiday
213,197373857.70125556
5925,197373857.70125586
2,2, 1, 2, 0,19, 0.00,60.00,Holiday
213,239027469.2224596
5925,239027469.22245997
2,2, 1, 2, 0,20, 0.00,60.00,Holiday
213,229005154.5292607
5925,229005154.52926108
2,2, 1, 2, 0,21, 0.00,60.00,Holiday
213,215594106.80388415
5925,215594106.8038845
2,2, 1, 2, 0,22, 0.00,60.00,Holiday
213,193133957.5907517
5925,193133957.5907519
2,2, 1, 2, 0,23, 0.00,60.00,Holiday
213,167344762.12111953
5925,167344762.12111953
2,2, 1, 2, 0,24, 0.00,60.00,Holiday
213,129327277.45863527
5925,129327277.45863527
2,3, 1, 3, 0, 1, 0.00,60.00,Tuesday
213,110729676.77321437
5925,110729676.7732144
2,3, 1, 3, 0, 2, 0.00,60.00,Tuesday
213,94715728.28806669
5925,94715728.28806669
2,3, 1, 3, 0, 3, 0.00,60.00,Tuesday
213,86462604.67629306
5925,86462604.67629308
2,3, 1, 3, 0, 4, 0.00,60.00,Tuesday
213,98929282.04543431
5925,98929282.0454343
2,3, 1, 3, 0, 5, 0.00,60.00,Tuesday
213,96756309.75451426
5925,96756309.75451428
2,3, 1, 3, 0, 6, 0.00,60.00,Tuesday
213,130019650.70210844
5925,130019650.70210844
2,3, 1, 3, 0, 7, 0.00,60.00,Tuesday
213,195476271.28837132
5925,195476271.2883713
2,3, 1, 3, 0, 8, 0.00,60.00,Tuesday
213,191977649.6771197
5925,191977649.67711967
2,3, 1, 3, 0, 9, 0.00,60.00,Tuesday
213,190797249.61587965
5925,190797249.61587965
2,3, 1, 3, 0,10, 0.00,60.00,Tuesday
213,169229842.25027743
5925,169229842.2502774
2,3, 1, 3, 0,11, 0.00,60.00,Tuesday
213,158482493.04211235
5925,158482493.0421123
2,3, 1, 3, 0,12, 0.00,60.00,Tuesday
213,143639666.12891117
5925,143639666.12891117
2,3, 1, 3, 0,13, 0.00,60.00,Tuesday
213,142077898.91899216
5925,142077898.91899213
2,3, 1, 3, 0,14, 0.00,60.00,Tuesday
213,127135820.37512417
5925,127135820.37512416
2,3, 1, 3, 0,15, 0.00,60.00,Tuesday
213,139763200.46361846
5925,139763200.4636185
2,3, 1, 3, 0,16, 0.00,60.00,Tuesday
213,144829398.88358808
5925,144829398.88358808
2,3, 1, 3, 0,17, 0.00,60.00,Tuesday
213,151954608.22113463
5925,151954608.2211348
2,3, 1, 3, 0,18, 0.00,60.00,Tuesday
213,212578898.34077236
5925,212578898.34077272
2,3, 1, 3, 0,19, 0.00,60.00,Tuesday
213,226244507.37886578
5925,226244507.37886614
2,3, 1, 3, 0,20, 0.00,60.00,Tuesday
213,237066032.66440478
5925,237066032.66440514
2,3, 1, 3, 0,21, 0.00,60.00,Tuesday
213,212799179.9749869
5925,212799179.9749872
2,3, 1, 3, 0,22, 0.00,60.00,Tuesday
213,196843938.6431405
5925,196843938.64314073
2,3, 1, 3, 0,23, 0.00,60.00,Tuesday
213,167647539.5533539
5925,167647539.5533539
2,3, 1, 3, 0,24, 0.00,60.00,Tuesday
213,129095426.13863279
5925,129095426.13863282
2,4, 1, 4, 0, 1, 0.00,60.00,Wednesday
213,103510987.47272268
5925,103510987.4727227
2,4, 1, 4, 0, 2, 0.00,60.00,Wednesday
213,94889873.72188221
5925,94889873.72188221
2,4, 1, 4, 0, 3, 0.00,60.00,Wednesday
213,100193106.09960851
5925,100193106.09960854
2,4, 1, 4, 0, 4, 0.00,60.00,Wednesday
213,93454024.47241732
5925,93454024.47241735
2,4, 1, 4, 0, 5, 0.00,60.00,Wednesday
213,90024440.21802957
5925,90024440.21802956
2,4, 1, 4, 0, 6, 0.00,60.00,Wednesday
213,130076315.44472274
5925,130076315.44472271
2,4, 1, 4, 0, 7, 0.00,60.00,Wednesday
213,195424199.10072237
5925,195424199.10072234
2,4, 1, 4, 0, 8, 0.00,60.00,Wednesday
213,199839055.13753363
5925,199839055.13753363
2,4, 1, 4, 0, 9, 0.00,60.00,Wednesday
213,183555646.27231997
5925,183555646.27231997
2,4, 1, 4, 0,10, 0.00,60.00,Wednesday
213,177106713.79726464
5925,177106713.79726464
2,4, 1, 4, 0,11, 0.00,60.00,Wednesday
213,150527666.37097842
5925,150527666.37097842
2,4, 1, 4, 0,12, 0.00,60.00,Wednesday
213,149307590.14150703
5925,149307590.141507
2,4, 1, 4, 0,13, 0.00,60.00,Wednesday
213,139719340.9224903
5925,139719340.92249033
2,4, 1, 4, 0,14, 0.00,60.00,Wednesday
213,138032106.74626532
5925,138032106.74626532
2,4, 1, 4, 0,15, 0.00,60.00,Wednesday
213,117433726.94856629
5925,117433726.9485663
2,4, 1, 4, 0,16, 0.00,60.00,Wednesday
213,143020489.6388826
5925,143020489.63888258
2,4, 1, 4, 0,17, 0.00,60.00,Wednesday
213,170472738.2209183
5925,170472738.22091845
2,4, 1, 4, 0,18, 0.00,60.00,Wednesday
213,197387942.8973431
5925,197387942.89734343
2,4, 1, 4, 0,19, 0.00,60.00,Wednesday
213,238231472.34743458
5925,238231472.34743488
2,4, 1, 4, 0,20, 0.00,60.00,Wednesday
213,213931329.0372671
5925,213931329.03726742
2,4, 1, 4, 0,21, 0.00,60.00,Wednesday
213,230913446.66207826
5925,230913446.66207856
2,4, 1, 4, 0,22, 0.00,60.00,Wednesday
213,189942045.84091103
5925,189942045.8409112
2,4, 1, 4, 0,23, 0.00,60.00,Wednesday
213,152903339.85796294
5925,152903339.8579629
2,4, 1, 4, 0,24, 0.00,60.00,Wednesday
213,141435688.86257815
5925,141435688.86257818
2,5, 1, 5, 0, 1, 0.00,60.00,Thursday
213,96551926.29980972
5925,96551926.29980971
2,5, 1, 5, 0, 2, 0.00,60.00,Thursday
213,106681080.9329224
5925,106681080.93292241
2,5, 1, 5, 0, 3, 0.00,60.00,Thursday
213,85480876.83555
5925,85480876.83555
2,5, 1, 5, 0, 4, 0.00,60.00,Thursday
213,84743520.73335156
5925,84743520.73335156
2,5, 1, 5, 0, 5, 0.00,60.00,Thursday
213,108362791.89482005
5925,108362791.89482006
2,5, 1, 5, 0, 6, 0.00,60.00,Thursday
213,128616247.21436661
5925,128616247.21436659
2,5, 1, 5, 0, 7, 0.00,60.00,Thursday
213,194648366.24918538
5925,194648366.2491854
2,5, 1, 5, 0, 8, 0.00,60.00,Thursday
213,191457293.6913104
5925,191457293.6913104
2,5, 1, 5, 0, 9, 0.00,60.00,Thursday
213,189706750.6446682
5925,189706750.64466822
2,5, 1, 5, 0,10, 0.00,60.00,Thursday
213,153354739.80292827
5925,153354739.8029283
2,5, 1, 5, 0,11, 0.00,60.00,Thursday
213,168416319.09789425
5925,168416319.09789425
2,5, 1, 5, 0,12, 0.00,60.00,Thursday
213,139167983.59415627
5925,139167983.59415627
2,5, 1, 5, 0,13, 0.00,60.00,Thursday
213,131129569.44568714
5925,131129569.44568714
2,5, 1, 5, 0,14, 0.00,60.00,Thursday
213,127718532.13703667
5925,127718532.13703665
2,5, 1, 5, 0,15, 0.00,60.00,Thursday
213,133452996.63680574
5925,133452996.63680571
2,5, 1, 5, 0,16, 0.00,60.00,Thursday
213,124816521.36348103
5925,124816521.36348103
2,5, 1, 5, 0,17, 0.00,60.00,Thursday
213,159120980.96915567
5925,159120980.9691558
2,5, 1, 5, 0,18, 0.00,60.00,Thursday
213,194225300.94872665
5925,194225300.94872698
2,5, 1, 5, 0,19, 0.00,60.00,Thursday
213,235864443.06534082
5925,235864443.06534117
2,5, 1, 5, 0,20, 0.00,60.00,Thursday
213,233312790.39830068
5925,233312790.39830098
2,5, 1, 5, 0,21, 0.00,60.00,Thursday
213,209480695.17053688
5925,209480695.17053714
2,5, 1, 5, 0,22, 0.00,60.00,Thursday
213,193844712.24261823
5925,193844712.24261844
2,5, 1, 5, 0,23, 0.00,60.00,Thursday
213,164678627.73533928
5925,164678627.73533928
2,5, 1, 5, 0,24, 0.00,60.00,Thursday
213,126011357.64213553
5925,126011357.64213553
2,6, 1, 6, 0, 1, 0.00,60.00,Friday
213,100972420.11475296
5925,100972420.11475295
2,6, 1, 6, 0, 2, 0.00,60.00,Friday
213,91357002.27034958
5925,91357002.27034955
2,6, 1, 6, 0, 3, 0.00,60.00,Friday
213,90806142.07363155
5925,90806142.07363157
2,6, 1, 6, 0, 4, 0.00,60.00,Friday
213,96367302.65525714
5925,96367302.65525712
2,6, 1, 6, 0, 5, 0.00,60.00,Friday
213,93297825.68237916
5925,93297825.68237916
2,6, 1, 6, 0, 6, 0.00,60.00,Friday
213,120606872.19228365
5925,120606872.19228362
2,6, 1, 6, 0, 7, 0.00,60.00,Friday
213,198269835.36714068
5925,198269835.36714062
2,6, 1, 6, 0, 8, 0.00,60.00,Friday
213,191138362.43041888
5925,191138362.43041888
2,6, 1, 6, 0, 9, 0.00,60.00,Friday
213,179586500.65041196
5925,179586500.6504119
2,6, 1, 6, 0,10, 0.00,60.00,Friday
213,171381436.0612648
5925,171381436.0612648
2,6, 1, 6, 0,11, 0.00,60.00,Friday
213,143293035.99596372
5925,143293035.99596372
2,6, 1, 6, 0,12, 0.00,60.00,Friday
213,141559220.701272
5925,141559220.70127198
2,6, 1, 6, 0,13, 0.00,60.00,Friday
213,131785996.36001384
5925,131785996.36001384
2,6, 1, 6, 0,14, 0.00,60.00,Friday
213,116260053.28235677
5925,116260053.28235677
2,6, 1, 6, 0,15, 0.00,60.00,Friday
213,128269361.81140095
5925,128269361.81140092
2,6, 1, 6, 0,16, 0.00,60.00,Friday
213,133249315.58888713
5925,133249315.58888713
2,6, 1, 6, 0,17, 0.00,60.00,Friday
213,140850394.10725617
5925,140850394.10725614
2,6, 1, 6, 0,18, 0.00,60.00,Friday
213,203386456.3375842
5925,203386456.33758447
2,6, 1, 6, 0,19, 0.00,60.00,Friday
213,219278975.70955464
5925,219278975.709555
2,6, 1, 6, 0,20, 0.00,60.00,Friday
213,230487558.7971352
5925,230487558.79713556
2,6, 1, 6, 0,21, 0.00,60.00,Friday
213,207334700.06313422
5925,207334700.06313458
2,6, 1, 6, 0,22, 0.00,60.00,Friday
213,184785664.951399
5925,184785664.95139915
2,6, 1, 6, 0,23, 0.00,60.00,Friday
213,171196725.79984373
5925,171196725.79984373
2,6, 1, 6, 0,24, 0.00,60.00,Friday
213,126107182.76087825
5925,126107182.76087826
2,7, 1, 7, 0, 1, 0.00,60.00,Saturday
213,101612282.55207933
5925,101612282.55207932
2,7, 1, 7, 0, 2, 0.00,60.00,Saturday
213,93887322.96163656
5925,93887322.96163657
2,7, 1, 7, 0, 3, 0.00,60.00,Saturday
213,99050529.54103586
5925,99050529.54103588
2,7, 1, 7, 0, 4, 0.00,60.00,Saturday
213,92452006.16842501
5925,92452006.16842501
2,7, 1, 7, 0, 5, 0.00,60.00,Saturday
213,89495410.32638435
5925,89495410.32638435
2,7, 1, 7, 0, 6, 0.00,60.00,Saturday
213,142092660.40874848
5925,142092660.40874848
2,7, 1, 7, 0, 7, 0.00,60.00,Saturday
213,182445163.40146112
5925,182445163.40146112
2,7, 1, 7, 0, 8, 0.00,60.00,Saturday
213,204753910.84132436
5925,204753910.8413243
2,7, 1, 7, 0, 9, 0.00,60.00,Saturday
213,172543778.6014917
5925,172543778.60149166
2,7, 1, 7, 0,10, 0.00,60.00,Saturday
213,170145098.6573133
5925,170145098.65731332
2,7, 1, 7, 0,11, 0.00,60.00,Saturday
213,144606858.0858381
5925,144606858.08583808
2,7, 1, 7, 0,12, 0.00,60.00,Saturday
213,143995531.30813494
5925,143995531.30813494
2,7, 1, 7, 0,13, 0.00,60.00,Saturday
213,124140017.22112748
5925,124140017.22112747
2,7, 1, 7, 0,14, 0.00,60.00,Saturday
213,127871924.54434468
5925,127871924.54434468
2,7, 1, 7, 0,15, 0.00,60.00,Saturday
213,105685613.50368373
5925,105685613.50368372
2,7, 1, 7, 0,16, 0.00,60.00,Saturday
213,131259731.37428114
5925,131259731.37428114
2,7, 1, 7, 0,17, 0.00,60.00,Saturday
213,160048181.8470886
5925,160048181.84708858
2,7, 1, 7, 0,18, 0.00,60.00,Saturday
213,191998632.7154759
5925,191998632.71547621
2,7, 1, 7, 0,19, 0.00,60.00,Saturday
213,234277886.66705948
5925,234277886.6670598
2,7, 1, 7, 0,20, 0.00,60.00,Saturday
213,211804796.54956576
5925,211804796.5495661
2,7, 1, 7, 0,21, 0.00,60.00,Saturday
213,228506483.50883967
5925,228506483.50883994
2,7, 1, 7, 0,22, 0.00,60.00,Saturday
213,185756633.3418193
5925,185756633.34181947
2,7, 1, 7, 0,23, 0.00,60.00,Saturday
213,164515570.1952771
5925,164515570.19527707
2,7, 1, 7, 0,24, 0.00,60.00,Saturday
213,126399790.29130493
5925,126399790.29130493
2,8, 1, 8, 0, 1, 0.00,60.00,Sunday
213,95122679.64313138
5925,95122679.64313138
2,8, 1, 8, 0, 2, 0.00,60.00,Sunday
213,106180884.03796831
5925,106180884.03796834
2,8, 1, 8, 0, 3, 0.00,60.00,Sunday
213,85402046.5819616
5925,85402046.5819616
2,8, 1, 8, 0, 4, 0.00,60.00,Sunday
213,85095115.17603335
5925,85095115.17603335
2,8, 1, 8, 0, 5, 0.00,60.00,Sunday
213,109190550.71031855
5925,109190550.71031855
2,8, 1, 8, 0, 6, 0.00,60.00,Sunday
213,129023140.5447599
5925,129023140.54475987
2,8, 1, 8, 0, 7, 0.00,60.00,Sunday
213,194846084.07183594
5925,194846084.07183594
2,8, 1, 8, 0, 8, 0.00,60.00,Sunday
213,196000106.14513654
5925,196000106.14513654
2,8, 1, 8, 0, 9, 0.00,60.00,Sunday
213,180927758.8275261
5925,180927758.827526
2,8, 1, 8, 0,10, 0.00,60.00,Sunday
213,165389544.70132318
5925,165389544.70132318
2,8, 1, 8, 0,11, 0.00,60.00,Sunday
213,144061370.67677677
5925,144061370.67677677
2,8, 1, 8, 0,12, 0.00,60.00,Sunday
213,136862789.17667758
5925,136862789.17667758
2,8, 1, 8, 0,13, 0.00,60.00,Sunday
213,128839461.25502619
5925,128839461.25502619
2,8, 1, 8, 0,14, 0.00,60.00,Sunday
213,112203474.55001481
5925,112203474.5500148
2,8, 1, 8, 0,15, 0.00,60.00,Sunday
213,117038433.40802343
5925,117038433.4080234
2,8, 1, 8, 0,16, 0.00,60.00,Sunday
213,119092215.89676113
5925,119092215.89676113
2,8, 1, 8, 0,17, 0.00,60.00,Sunday
213,147210442.29573774
5925,147210442.2957377
2,8, 1, 8, 0,18, 0.00,60.00,Sunday
213,210418798.0805413
5925,210418798.08054167
2,8, 1, 8, 0,19, 0.00,60.00,Sunday
213,210889083.20724335
5925,210889083.2072437
2,8, 1, 8, 0,20, 0.00,60.00,Sunday
213,230023960.7880818
5925,230023960.78808215
2,8, 1, 8, 0,21, 0.00,60.00,Sunday
213,206777813.26446685
5925,206777813.2644672
2,8, 1, 8, 0,22, 0.00,60.00,Sunday
213,191798125.06562218
5925,191798125.0656224
2,8, 1, 8, 0,23, 0.00,60.00,Sunday
213,163261823.2730085
5925,163261823.2730085
2,8, 1, 8, 0,24, 0.00,60.00,Sunday
213,125286908.7684258
5925,125286908.7684258
2,9, 1, 9, 0, 1, 0.00,60.00,Monday
213,107331127.575155
5925,107331127.57515502
2,9, 1, 9, 0, 2, 0.00,60.00,Monday
213,85850808.88952757
5925,85850808.88952759
2,9, 1, 9, 0, 3, 0.00,60.00,Monday
213,104241942.17180353
5925,104241942.17180355
2,9, 1, 9, 0, 4, 0.00,60.00,Monday
213,85306062.15492725
5925,85306062.15492724
2,9, 1, 9, 0, 5, 0.00,60.00,Monday
213,96046891.0461217
5925,96046891.0461217
2,9, 1, 9, 0, 6, 0.00,60.00,Monday
213,129372043.25456282
5925,129372043.25456281
2,9, 1, 9, 0, 7, 0.00,60.00,Monday
213,195545251.68029913
5925,195545251.68029913
2,9, 1, 9, 0, 8, 0.00,60.00,Monday
213,192741602.0296378
5925,192741602.02963778
2,9, 1, 9, 0, 9, 0.00,60.00,Monday
213,190091739.368035
5925,190091739.36803496
2,9, 1, 9, 0,10, 0.00,60.00,Monday
213,166109608.37255204
5925,166109608.37255204
2,9, 1, 9, 0,11, 0.00,60.00,Monday
213,152024862.2240678
5925,152024862.2240678
2,9, 1, 9, 0,12, 0.00,60.00,Monday
213,133347161.99188647
5925,133347161.99188645
2,9, 1, 9, 0,13, 0.00,60.00,Monday
213,137732790.35531765
5925,137732790.35531765
2,9, 1, 9, 0,14, 0.00,60.00,Monday
213,124041706.69774313
5925,124041706.69774315
2,9, 1, 9, 0,15, 0.00,60.00,Monday
213,111049292.60891216
5925,111049292.60891214
2,9, 1, 9, 0,16, 0.00,60.00,Monday
213,132570882.35144295
5925,132570882.35144293
2,9, 1, 9, 0,17, 0.00,60.00,Monday
213,152902756.15198597
5925,152902756.15198597
2,9, 1, 9, 0,18, 0.00,60.00,Monday
213,189482966.09009436
5925,189482966.09009472
2,9, 1, 9, 0,19, 0.00,60.00,Monday
213,228726479.91897708
5925,228726479.91897744
2,9, 1, 9, 0,20, 0.00,60.00,Monday
213,215655641.29173124
5925,215655641.29173157
2,9, 1, 9, 0,21, 0.00,60.00,Monday
213,219617090.83802706
5925,219617090.83802742
2,9, 1, 9, 0,22, 0.00,60.00,Monday
213,190998366.32573774
5925,190998366.3257379
2,9, 1, 9, 0,23, 0.00,60.00,Monday
213,159828947.99886808
5925,159828947.99886805
2,9, 1, 9, 0,24, 0.00,60.00,Monday
213,127972187.0760193
5925,127972187.07601929
2,10, 1,10, 0, 1, 0.00,60.00,Tuesday
213,95200828.91058855
5925,95200828.91058855
2,10, 1,10, 0, 2, 0.00,60.00,Tuesday
213,98989669.85027982
5925,98989669.85027987
2,10, 1,10, 0, 3, 0.00,60.00,Tuesday
213,91838593.90358444
5925,91838593.90358445
2,10, 1,10, 0, 4, 0.00,60.00,Tuesday
213,84508949.29753362
5925,84508949.2975336
2,10, 1,10, 0, 5, 0.00,60.00,Tuesday
213,108721383.2415064
5925,108721383.2415064
2,10, 1,10, 0, 6, 0.00,60.00,Tuesday
213,125354228.67975098
5925,125354228.67975095
2,10, 1,10, 0, 7, 0.00,60.00,Tuesday
213,198899321.9331285
5925,198899321.9331285
2,10, 1,10, 0, 8, 0.00,60.00,Tuesday
213,192313519.6877688
5925,192313519.68776876
2,10, 1,10, 0, 9, 0.00,60.00,Tuesday
213,187604130.27950987
5925,187604130.27950987
2,10, 1,10, 0,10, 0.00,60.00,Tuesday
213,162396422.80390358
5925,162396422.80390358
2,10, 1,10, 0,11, 0.00,60.00,Tuesday
213,157574502.3956768
5925,157574502.3956768
2,10, 1,10, 0,12, 0.00,60.00,Tuesday
213,132697867.1761802
5925,132697867.1761802
2,10, 1,10, 0,13, 0.00,60.00,Tuesday
213,133958669.043116
5925,133958669.04311599
2,10, 1,10, 0,14, 0.00,60.00,Tuesday
213,111011119.34998988
5925,111011119.34998985
2,10, 1,10, 0,15, 0.00,60.00,Tuesday
213,127136981.73680317
5925,127136981.73680317
2,10, 1,10, 0,16, 0.00,60.00,Tuesday
213,123373812.8856655
5925,123373812.8856655
2,10, 1,10, 0,17, 0.00,60.00,Tuesday
213,147231503.5898139
5925,147231503.58981386
2,10, 1,10, 0,18, 0.00,60.00,Tuesday
213,196367020.4897675
5925,196367020.4897678
2,10, 1,10, 0,19, 0.00,60.00,Tuesday
213,217845879.85940993
5925,217845879.85941023
2,10, 1,10, 0,20, 0.00,60.00,Tuesday
213,226282133.49162775
5925,226282133.49162808
2,10, 1,10, 0,21, 0.00,60.00,Tuesday
213,203550016.6040963
5925,203550016.6040966
2,10, 1,10, 0,22, 0.00,60.00,Tuesday
213,188750729.01582944
5925,188750729.01582962
2,10, 1,10, 0,23, 0.00,60.00,Tuesday
213,159846306.64095986
5925,159846306.64095983
2,10, 1,10, 0,24, 0.00,60.00,Tuesday
213,121371840.92289001
5925,121371840.92289
2,11, 1,11, 0, 1, 0.00,60.00,Wednesday
213,103032922.16213581
5925,103032922.16213578
2,11, 1,11, 0, 2, 0.00,60.00,Wednesday
213,80704783.20158291
5925,80704783.20158291
2,11, 1,11, 0, 3, 0.00,60.00,Wednesday
213,95753616.79522581
5925,95753616.79522583
2,11, 1,11, 0, 4, 0.00,60.00,Wednesday
213,84059704.85301399
5925,84059704.85301399
2,11, 1,11, 0, 5, 0.00,60.00,Wednesday
213,86887500.56796412
5925,86887500.56796412
2,11, 1,11, 0, 6, 0.00,60.00,Wednesday
213,130798550.64016047
5925,130798550.64016047
2,11, 1,11, 0, 7, 0.00,60.00,Wednesday
213,183454855.1958363
5925,183454855.1958363
2,11, 1,11, 0, 8, 0.00,60.00,Wednesday
213,191317618.95562267
5925,191317618.95562267
2,11, 1,11, 0, 9, 0.00,60.00,Wednesday
213,178159506.52489856
5925,178159506.52489856
2,11, 1,11, 0,10, 0.00,60.00,Wednesday
213,167222359.0963129
5925,167222359.09631288
2,11, 1,11, 0,11, 0.00,60.00,Wednesday
213,153472612.50173903
5925,153472612.50173903
2,11, 1,11, 0,12, 0.00,60.00,Wednesday
213,143237866.7462827
5925,143237866.7462827
2,11, 1,11, 0,13, 0.00,60.00,Wednesday
213,132741790.1884399
5925,132741790.1884399
2,11, 1,11, 0,14, 0.00,60.00,Wednesday
213,130396641.4995655
5925,130396641.49956548
2,11, 1,11, 0,15, 0.00,60.00,Wednesday
213,121235041.3166362
5925,121235041.31663622
2,11, 1,11, 0,16, 0.00,60.00,Wednesday
213,140243159.55010003
5925,140243159.5501
2,11, 1,11, 0,17, 0.00,60.00,Wednesday
213,160770528.77589807
5925,160770528.77589825
2,11, 1,11, 0,18, 0.00,60.00,Wednesday
213,195860554.11990476
5925,195860554.11990508
2,11, 1,11, 0,19, 0.00,60.00,Wednesday
213,235451484.69779587
5925,235451484.69779623
2,11, 1,11, 0,20, 0.00,60.00,Wednesday
213,227587580.08568847
5925,227587580.08568877
2,11, 1,11, 0,21, 0.00,60.00,Wednesday
213,215050387.67401588
5925,215050387.67401618
2,11, 1,11, 0,22, 0.00,60.00,Wednesday
213,193649381.8536256
5925,193649381.8536258
2,11, 1,11, 0,23, 0.00,60.00,Wednesday
213,162470797.9773816
5925,162470797.97738156
2,11, 1,11, 0,24, 0.00,60.00,Wednesday
213,129129010.83748637
5925,129129010.8374864
2,12, 1,12, 0, 1, 0.00,60.00,Thursday
213,95469230.39298028
5925,95469230.39298026
2,12, 1,12, 0, 2, 0.00,60.00,Thursday
213,99205055.9886693
5925,99205055.98866932
2,12, 1,12, 0, 3, 0.00,60.00,Thursday
213,91074941.0412769
5925,91074941.04127692
2,12, 1,12, 0, 4, 0.00,60.00,Thursday
213,94775222.3411793
5925,94775222.3411793
2,12, 1,12, 0, 5, 0.00,60.00,Thursday
213,95124131.33571242
5925,95124131.33571242
2,12, 1,12, 0, 6, 0.00,60.00,Thursday
213,128489576.53537533
5925,128489576.53537533
2,12, 1,12, 0, 7, 0.00,60.00,Thursday
213,194946214.2536456
5925,194946214.2536456
2,12, 1,12, 0, 8, 0.00,60.00,Thursday
213,193929503.92561403
5925,193929503.92561403
2,12, 1,12, 0, 9, 0.00,60.00,Thursday
213,186188928.1103332
5925,186188928.1103332
2,12, 1,12, 0,10, 0.00,60.00,Thursday
213,168185462.5047502
5925,168185462.5047502
2,12, 1,12, 0,11, 0.00,60.00,Thursday
213,155504859.45248485
5925,155504859.45248485
2,12, 1,12, 0,12, 0.00,60.00,Thursday
213,144638542.96039358
5925,144638542.96039358
2,12, 1,12, 0,13, 0.00,60.00,Thursday
213,142791378.51413736
5925,142791378.5141374
2,12, 1,12, 0,14, 0.00,60.00,Thursday
213,130503281.94443515
5925,130503281.94443515
2,12, 1,12, 0,15, 0.00,60.00,Thursday
213,126099283.7307906
5925,126099283.7307906
2,12, 1,12, 0,16, 0.00,60.00,Thursday
213,138727488.9864174
5925,138727488.9864174
2,12, 1,12, 0,17, 0.00,60.00,Thursday
213,160103591.6189248
5925,160103591.61892495
2,12, 1,12, 0,18, 0.00,60.00,Thursday
213,207203706.78566545
5925,207203706.7856658
2,12, 1,12, 0,19, 0.00,60.00,Thursday
213,228210478.80793056
5925,228210478.80793092
2,12, 1,12, 0,20, 0.00,60.00,Thursday
213,226455550.48387367
5925,226455550.48387396
2,12, 1,12, 0,21, 0.00,60.00,Thursday
213,218002042.90183517
5925,218002042.90183547
2,12, 1,12, 0,22, 0.00,60.00,Thursday
213,196041668.48747098
5925,196041668.4874712
2,12, 1,12, 0,23, 0.00,60.00,Thursday
213,157241717.1960826
5925,157241717.1960826
2,12, 1,12, 0,24, 0.00,60.00,Thursday
213,134295055.94218713
5925,134295055.94218713
2,13, 1,13, 0, 1, 0.00,60.00,Friday
213,102568784.08991845
5925,102568784.08991843
2,13, 1,13, 0, 2, 0.00,60.00,Friday
213,90270035.00154413
5925,90270035.00154413
2,13, 1,13, 0, 3, 0.00,60.00,Friday
213,101700257.83922252
5925,101700257.83922252
2,13, 1,13, 0, 4, 0.00,60.00,Friday
213,86242949.83279143
5925,86242949.83279143
2,13, 1,13, 0, 5, 0.00,60.00,Friday
213,101872782.13125367
5925,101872782.13125367
2,13, 1,13, 0, 6, 0.00,60.00,Friday
213,128974496.68108955
5925,128974496.68108955
2,13, 1,13, 0, 7, 0.00,60.00,Friday
213,196201785.43494022
5925,196201785.43494022
2,13, 1,13, 0, 8, 0.00,60.00,Friday
213,193266000.56013188
5925,193266000.56013185
2,13, 1,13, 0, 9, 0.00,60.00,Friday
213,186133792.2096367
5925,186133792.20963663
2,13, 1,13, 0,10, 0.00,60.00,Friday
213,164889680.8899854
5925,164889680.88998538
2,13, 1,13, 0,11, 0.00,60.00,Friday
213,160817768.73383078
5925,160817768.73383078
2,13, 1,13, 0,12, 0.00,60.00,Friday
213,146371342.25668612
5925,146371342.25668612
2,13, 1,13, 0,13, 0.00,60.00,Friday
213,137018767.0130514
5925,137018767.0130514
2,13, 1,13, 0,14, 0.00,60.00,Friday
213,130625642.00984728
5925,130625642.00984725
2,13, 1,13, 0,15, 0.00,60.00,Friday
213,130008325.74920467
5925,130008325.74920467
2,13, 1,13, 0,16, 0.00,60.00,Friday
213,132532824.35636207
5925,132532824.35636204
2,13, 1,13, 0,17, 0.00,60.00,Friday
213,162855415.27415255
5925,162855415.27415273
2,13, 1,13, 0,18, 0.00,60.00,Friday
213,202919939.87378418
5925,202919939.87378454
2,13, 1,13, 0,19, 0.00,60.00,Friday
213,234465525.64880067
5925,234465525.648801
2,13, 1,13, 0,20, 0.00,60.00,Friday
213,229274718.60153538
5925,229274718.60153577
2,13, 1,13, 0,21, 0.00,60.00,Friday
213,216598538.01373422
5925,216598538.01373458
2,13, 1,13, 0,22, 0.00,60.00,Friday
213,193144687.5094457
5925,193144687.50944588
2,13, 1,13, 0,23, 0.00,60.00,Friday
213,166210246.41281286
5925,166210246.41281283
2,13, 1,13, 0,24, 0.00,60.00,Friday
213,127685286.73692934
5925,127685286.73692931
2,14, 1,14, 0, 1, 0.00,60.00,Saturday
213,106096694.2249004
5925,106096694.22490036
2,14, 1,14, 0, 2, 0.00,60.00,Saturday
213,94214471.99553384
5925,94214471.99553384
2,14, 1,14, 0, 3, 0.00,60.00,Saturday
213,89832018.66609225
5925,89832018.66609226
2,14, 1,14, 0, 4, 0.00,60.00,Saturday
213,97883051.83888036
5925,97883051.83888036
2,14, 1,14, 0, 5, 0.00,60.00,Saturday
213,96221270.00923085
5925,96221270.00923087
2,14, 1,14, 0, 6, 0.00,60.00,Saturday
213,126638172.91501954
5925,126638172.91501954
2,14, 1,14, 0, 7, 0.00,60.00,Saturday
213,198489552.2186619
5925,198489552.21866193
2,14, 1,14, 0, 8, 0.00,60.00,Saturday
213,194780212.4146422
5925,194780212.4146422
2,14, 1,14, 0, 9, 0.00,60.00,Saturday
213,178774523.62529117
5925,178774523.62529114
2,14, 1,14, 0,10, 0.00,60.00,Saturday
213,171296065.61705303
5925,171296065.6170531
2,14, 1,14, 0,11, 0.00,60.00,Saturday
213,148430580.71138948
5925,148430580.71138948
2,14, 1,14, 0,12, 0.00,60.00,Saturday
213,141460801.863312
5925,141460801.86331204
2,14, 1,14, 0,13, 0.00,60.00,Saturday
213,136570114.1999798
5925,136570114.1999798
2,14, 1,14, 0,14, 0.00,60.00,Saturday
213,132833148.64608863
5925,132833148.64608862
2,14, 1,14, 0,15, 0.00,60.00,Saturday
213,117777604.48126926
5925,117777604.48126926
2,14, 1,14, 0,16, 0.00,60.00,Saturday
213,139132244.74849433
5925,139132244.74849433
2,14, 1,14, 0,17, 0.00,60.00,Saturday
213,161022278.73141724
5925,161022278.73141733
2,14, 1,14, 0,18, 0.00,60.00,Saturday
213,199367335.18444473
5925,199367335.18444508
2,14, 1,14, 0,19, 0.00,60.00,Saturday
213,237865172.65953487
5925,237865172.65953523
2,14, 1,14, 0,20, 0.00,60.00,Saturday
213,219185998.164308
5925,219185998.16430834
2,14, 1,14, 0,21, 0.00,60.00,Saturday
213,228113857.77346936
5925,228113857.77346975
2,14, 1,14, 0,22, 0.00,60.00,Saturday
213,192271084.20336354
5925,192271084.20336372
2,14, 1,14, 0,23, 0.00,60.00,Saturday
213,166428645.48385084
5925,166428645.48385084
2,14, 1,14, 0,24, 0.00,60.00,Saturday
213,127273352.52792697
5925,127273352.52792694
2,15, 1,15, 0, 1, 0.00,60.00,Sunday
213,97199827.85113302
5925,97199827.85113302
2,15, 1,15, 0, 2, 0.00,60.00,Sunday
213,99700342.37973918
5925,99700342.3797392
2,15, 1,15, 0, 3, 0.00,60.00,Sunday
213,92774171.65683958
5925,92774171.6568396
2,15, 1,15, 0, 4, 0.00,60.00,Sunday
213,88649001.643168
5925,88649001.64316799
2,15, 1,15, 0, 5, 0.00,60.00,Sunday
213,105255105.2080556
5925,105255105.20805559
2,15, 1,15, 0, 6, 0.00,60.00,Sunday
213,127376152.29001832
5925,127376152.29001832
2,15, 1,15, 0, 7, 0.00,60.00,Sunday
213,194944644.116663
5925,194944644.116663
2,15, 1,15, 0, 8, 0.00,60.00,Sunday
213,194631588.316972
5925,194631588.31697202
2,15, 1,15, 0, 9, 0.00,60.00,Sunday
213,182833520.7397458
5925,182833520.7397458
2,15, 1,15, 0,10, 0.00,60.00,Sunday
213,164219092.1287322
5925,164219092.1287322
2,15, 1,15, 0,11, 0.00,60.00,Sunday
213,154580724.448158
5925,154580724.44815803
2,15, 1,15, 0,12, 0.00,60.00,Sunday
213,142022575.19097492
5925,142022575.1909749
2,15, 1,15, 0,13, 0.00,60.00,Sunday
213,140538730.57776743
5925,140538730.57776743
2,15, 1,15, 0,14, 0.00,60.00,Sunday
213,121445042.48777057
5925,121445042.48777054
2,15, 1,15, 0,15, 0.00,60.00,Sunday
213,131759090.86397228
5925,131759090.86397225
2,15, 1,15, 0,16, 0.00,60.00,Sunday
213,132744087.79420198
5925,132744087.794202
2,15, 1,15, 0,17, 0.00,60.00,Sunday
213,154504480.39110148
5925,154504480.39110166
2,15, 1,15, 0,18, 0.00,60.00,Sunday
213,210699328.99453446