Program Version,EnergyPlus, Version 26.1.0-6f2e40d102, YMD=2026.04.14 20:39
1,5,Environment Title[],Latitude[deg],Longitude[deg],Time Zone[],Elevation[m]
2,8,Day of Simulation[],Month[],Day of Month[],DST Indicator[1=yes 0=no],Hour[],StartMinute[],EndMinute[],DayType
3,5,Cumulative Day of Simulation[],Month[],Day of Month[],DST Indicator[1=yes 0=no],DayType  ! When Daily Meters Requested
4,2,Cumulative Days of Simulation[],Month[]  ! When Monthly Meters Requested
5,1,Cumulative Days of Simulation[] ! When Run Period Meters Requested
6,1,Calendar Year of Simulation[] ! When Annual Meters Requested
213,1,Electricity:Facility [J] !Hourly
6085,1,ElectricityNet:Facility [J] !Hourly
End of Data Dictionary
1,RUNPERIOD 1,  28.11, 112.79,   8.00, 120.00
2,1, 1, 1, 0, 1, 0.00,60.00,Holiday
213,201647182.36446297
6085,201647182.36446297
2,1, 1, 1, 0, 2, 0.00,60.00,Holiday
213,191267654.91863388
6085,191267654.91863376
2,1, 1, 1, 0, 3, 0.00,60.00,Holiday
213,189522606.51677704
6085,189522606.51677692
2,1, 1, 1, 0, 4, 0.00,60.00,Holiday
213,188604768.13245398
6085,188604768.1324538
2,1, 1, 1, 0, 5, 0.00,60.00,Holiday
213,191428587.01037732
6085,191428587.01037714
2,1, 1, 1, 0, 6, 0.00,60.00,Holiday
213,206353973.3945021
6085,206353973.39450192
2,1, 1, 1, 0, 7, 0.00,60.00,Holiday
213,226491331.96976253
6085,226491331.96976233
2,1, 1, 1, 0, 8, 0.00,60.00,Holiday
213,224878327.7409535
6085,224878327.74095327
2,1, 1, 1, 0, 9, 0.00,60.00,Holiday
213,214706836.50167483
6085,214706836.50167465
2,1, 1, 1, 0,10, 0.00,60.00,Holiday
213,207398269.60767663
6085,207398269.60767648
2,1, 1, 1, 0,11, 0.00,60.00,Holiday
213,194700828.89954972
6085,194700828.8995495
2,1, 1, 1, 0,12, 0.00,60.00,Holiday
213,209217326.76067176
6085,209217326.7606716
2,1, 1, 1, 0,13, 0.00,60.00,Holiday
213,207968464.1481731
6085,207968464.1481729
2,1, 1, 1, 0,14, 0.00,60.00,Holiday
213,197232686.89567643
6085,197232686.89567617
2,1, 1, 1, 0,15, 0.00,60.00,Holiday
213,206311341.61705828
6085,206311341.61705813
2,1, 1, 1, 0,16, 0.00,60.00,Holiday
213,218938658.15257216
6085,218938658.15257204
2,1, 1, 1, 0,17, 0.00,60.00,Holiday
213,238405632.17312077
6085,238405632.17312062
2,1, 1, 1, 0,18, 0.00,60.00,Holiday
213,291897121.9586668
6085,291897121.9586673
2,1, 1, 1, 0,19, 0.00,60.00,Holiday
213,308572509.16800296
6085,308572509.1680035
2,1, 1, 1, 0,20, 0.00,60.00,Holiday
213,294981611.12546676
6085,294981611.12546724
2,1, 1, 1, 0,21, 0.00,60.00,Holiday
213,289006472.38968503
6085,289006472.3896856
2,1, 1, 1, 0,22, 0.00,60.00,Holiday
213,269736914.90990114
6085,269736914.90990126
2,1, 1, 1, 0,23, 0.00,60.00,Holiday
213,238509871.17424452
6085,238509871.1742444
2,1, 1, 1, 0,24, 0.00,60.00,Holiday
213,221066540.61007822
6085,221066540.61007804
2,2, 1, 2, 0, 1, 0.00,60.00,Monday
213,203878198.77584746
6085,203878198.77584738
2,2, 1, 2, 0, 2, 0.00,60.00,Monday
213,194466499.63922572
6085,194466499.6392256
2,2, 1, 2, 0, 3, 0.00,60.00,Monday
213,191781252.70364404
6085,191781252.70364392
2,2, 1, 2, 0, 4, 0.00,60.00,Monday
213,190914683.1937685
6085,190914683.19376835
2,2, 1, 2, 0, 5, 0.00,60.00,Monday
213,194256057.6864807
6085,194256057.68648058
2,2, 1, 2, 0, 6, 0.00,60.00,Monday
213,209512142.0094304
6085,209512142.0094302
2,2, 1, 2, 0, 7, 0.00,60.00,Monday
213,230945655.28976393
6085,230945655.28976375
2,2, 1, 2, 0, 8, 0.00,60.00,Monday
213,230993271.98747328
6085,230993271.987473
2,2, 1, 2, 0, 9, 0.00,60.00,Monday
213,230184364.9754811
6085,230184364.97548094
2,2, 1, 2, 0,10, 0.00,60.00,Monday
213,223646178.0893885
6085,223646178.08938828
2,2, 1, 2, 0,11, 0.00,60.00,Monday
213,214290960.34464258
6085,214290960.34464243
2,2, 1, 2, 0,12, 0.00,60.00,Monday
213,216272475.40596446
6085,216272475.40596426
2,2, 1, 2, 0,13, 0.00,60.00,Monday
213,213566973.9789112
6085,213566973.97891104
2,2, 1, 2, 0,14, 0.00,60.00,Monday
213,212033353.8454392
6085,212033353.84543905
2,2, 1, 2, 0,15, 0.00,60.00,Monday
213,209427399.79418704
6085,209427399.79418683
2,2, 1, 2, 0,16, 0.00,60.00,Monday
213,216694277.5138415
6085,216694277.51384133
2,2, 1, 2, 0,17, 0.00,60.00,Monday
213,250390384.3631411
6085,250390384.36314124
2,2, 1, 2, 0,18, 0.00,60.00,Monday
213,295691498.2320179
6085,295691498.23201835
2,2, 1, 2, 0,19, 0.00,60.00,Monday
213,311489892.9693823
6085,311489892.9693828
2,2, 1, 2, 0,20, 0.00,60.00,Monday
213,299150896.5222545
6085,299150896.522255
2,2, 1, 2, 0,21, 0.00,60.00,Monday
213,292921660.87747306
6085,292921660.8774735
2,2, 1, 2, 0,22, 0.00,60.00,Monday
213,274832546.5962746
6085,274832546.5962748
2,2, 1, 2, 0,23, 0.00,60.00,Monday
213,244063771.9442503
6085,244063771.9442501
2,2, 1, 2, 0,24, 0.00,60.00,Monday
213,225881469.44255182
6085,225881469.44255164
2,3, 1, 3, 0, 1, 0.00,60.00,Tuesday
213,208982611.79373476
6085,208982611.79373473
2,3, 1, 3, 0, 2, 0.00,60.00,Tuesday
213,200285457.03893703
6085,200285457.03893688
2,3, 1, 3, 0, 3, 0.00,60.00,Tuesday
213,198106440.07871732
6085,198106440.07871723
2,3, 1, 3, 0, 4, 0.00,60.00,Tuesday
213,197373427.50044274
6085,197373427.50044256
2,3, 1, 3, 0, 5, 0.00,60.00,Tuesday
213,200575082.35784084
6085,200575082.3578407
2,3, 1, 3, 0, 6, 0.00,60.00,Tuesday
213,221683214.08769017
6085,221683214.08769
2,3, 1, 3, 0, 7, 0.00,60.00,Tuesday
213,243519737.8867833
6085,243519737.88678312
2,3, 1, 3, 0, 8, 0.00,60.00,Tuesday
213,236956468.28984767
6085,236956468.2898475
2,3, 1, 3, 0, 9, 0.00,60.00,Tuesday
213,236335364.8445822
6085,236335364.844582
2,3, 1, 3, 0,10, 0.00,60.00,Tuesday
213,228493699.3745051
6085,228493699.3745049
2,3, 1, 3, 0,11, 0.00,60.00,Tuesday
213,218822154.04250628
6085,218822154.0425061
2,3, 1, 3, 0,12, 0.00,60.00,Tuesday
213,220560276.01582587
6085,220560276.01582563
2,3, 1, 3, 0,13, 0.00,60.00,Tuesday
213,216666691.44153506
6085,216666691.4415349
2,3, 1, 3, 0,14, 0.00,60.00,Tuesday
213,214846330.05189413
6085,214846330.05189392
2,3, 1, 3, 0,15, 0.00,60.00,Tuesday
213,213946130.3432917
6085,213946130.34329158
2,3, 1, 3, 0,16, 0.00,60.00,Tuesday
213,222213259.47176123
6085,222213259.47176105
2,3, 1, 3, 0,17, 0.00,60.00,Tuesday
213,256171271.92408717
6085,256171271.9240874
2,3, 1, 3, 0,18, 0.00,60.00,Tuesday
213,302711621.67176926
6085,302711621.6717698
2,3, 1, 3, 0,19, 0.00,60.00,Tuesday
213,314970974.01282454
6085,314970974.012825
2,3, 1, 3, 0,20, 0.00,60.00,Tuesday
213,302821728.9957044
6085,302821728.99570477
2,3, 1, 3, 0,21, 0.00,60.00,Tuesday
213,297647334.0911027
6085,297647334.09110326
2,3, 1, 3, 0,22, 0.00,60.00,Tuesday
213,277579946.4675251
6085,277579946.4675253
2,3, 1, 3, 0,23, 0.00,60.00,Tuesday
213,244965252.75617436
6085,244965252.7561742
2,3, 1, 3, 0,24, 0.00,60.00,Tuesday
213,220089201.71160975
6085,220089201.71160954
2,4, 1, 4, 0, 1, 0.00,60.00,Wednesday
213,203333815.08766377
6085,203333815.0876638
2,4, 1, 4, 0, 2, 0.00,60.00,Wednesday
213,199960092.82612315
6085,199960092.82612297
2,4, 1, 4, 0, 3, 0.00,60.00,Wednesday
213,204690246.3169772
6085,204690246.31697705
2,4, 1, 4, 0, 4, 0.00,60.00,Wednesday
213,203932949.80498427
6085,203932949.80498415
2,4, 1, 4, 0, 5, 0.00,60.00,Wednesday
213,202456197.7785848
6085,202456197.7785847
2,4, 1, 4, 0, 6, 0.00,60.00,Wednesday
213,218356399.4974949
6085,218356399.4974947
2,4, 1, 4, 0, 7, 0.00,60.00,Wednesday
213,239443025.39759293
6085,239443025.39759272
2,4, 1, 4, 0, 8, 0.00,60.00,Wednesday
213,237184029.3424303
6085,237184029.34243006
2,4, 1, 4, 0, 9, 0.00,60.00,Wednesday
213,236950243.7024456
6085,236950243.70244542
2,4, 1, 4, 0,10, 0.00,60.00,Wednesday
213,227089197.3211617
6085,227089197.3211615
2,4, 1, 4, 0,11, 0.00,60.00,Wednesday
213,210900109.7077325
6085,210900109.70773232
2,4, 1, 4, 0,12, 0.00,60.00,Wednesday
213,202675613.07455263
6085,202675613.07455245
2,4, 1, 4, 0,13, 0.00,60.00,Wednesday
213,195122136.75147876
6085,195122136.75147858
2,4, 1, 4, 0,14, 0.00,60.00,Wednesday
213,191853320.49859622
6085,191853320.49859595
2,4, 1, 4, 0,15, 0.00,60.00,Wednesday
213,198593604.0730833
6085,198593604.07308313
2,4, 1, 4, 0,16, 0.00,60.00,Wednesday
213,206858525.41148612
6085,206858525.4114859
2,4, 1, 4, 0,17, 0.00,60.00,Wednesday
213,236781989.4829592
6085,236781989.48295912
2,4, 1, 4, 0,18, 0.00,60.00,Wednesday
213,291736184.6818276
6085,291736184.68182814
2,4, 1, 4, 0,19, 0.00,60.00,Wednesday
213,308602511.6074709
6085,308602511.60747135
2,4, 1, 4, 0,20, 0.00,60.00,Wednesday
213,291961474.6979235
6085,291961474.69792396
2,4, 1, 4, 0,21, 0.00,60.00,Wednesday
213,291359168.166864
6085,291359168.16686445
2,4, 1, 4, 0,22, 0.00,60.00,Wednesday
213,272049625.27897877
6085,272049625.2789789
2,4, 1, 4, 0,23, 0.00,60.00,Wednesday
213,235526835.93147182
6085,235526835.93147165
2,4, 1, 4, 0,24, 0.00,60.00,Wednesday
213,217682349.06432134
6085,217682349.06432116
2,5, 1, 5, 0, 1, 0.00,60.00,Thursday
213,201149370.51293066
6085,201149370.5129306
2,5, 1, 5, 0, 2, 0.00,60.00,Thursday
213,192161373.52235535
6085,192161373.52235523
2,5, 1, 5, 0, 3, 0.00,60.00,Thursday
213,195225325.12102136
6085,195225325.1210212
2,5, 1, 5, 0, 4, 0.00,60.00,Thursday
213,193834052.7172264
6085,193834052.71722624
2,5, 1, 5, 0, 5, 0.00,60.00,Thursday
213,192163635.15462166
6085,192163635.15462154
2,5, 1, 5, 0, 6, 0.00,60.00,Thursday
213,213800693.35576668
6085,213800693.35576653
2,5, 1, 5, 0, 7, 0.00,60.00,Thursday
213,237428827.23034117
6085,237428827.230341
2,5, 1, 5, 0, 8, 0.00,60.00,Thursday
213,232796506.06514084
6085,232796506.06514063
2,5, 1, 5, 0, 9, 0.00,60.00,Thursday
213,220487890.58981863
6085,220487890.58981842
2,5, 1, 5, 0,10, 0.00,60.00,Thursday
213,196404631.59667483
6085,196404631.59667462
2,5, 1, 5, 0,11, 0.00,60.00,Thursday
213,178122836.73323673
6085,178122836.7332365
2,5, 1, 5, 0,12, 0.00,60.00,Thursday
213,176124685.583982
6085,176124685.5839817
2,5, 1, 5, 0,13, 0.00,60.00,Thursday
213,170784887.2794349
6085,170784887.27943474
2,5, 1, 5, 0,14, 0.00,60.00,Thursday
213,166440425.94518018
6085,166440425.94518
2,5, 1, 5, 0,15, 0.00,60.00,Thursday
213,162563172.39242402
6085,162563172.39242384
2,5, 1, 5, 0,16, 0.00,60.00,Thursday
213,172761975.3900431
6085,172761975.3900429
2,5, 1, 5, 0,17, 0.00,60.00,Thursday
213,210634508.55175304
6085,210634508.55175292
2,5, 1, 5, 0,18, 0.00,60.00,Thursday
213,265068392.82320502
6085,265068392.82320553
2,5, 1, 5, 0,19, 0.00,60.00,Thursday
213,290754338.9056591
6085,290754338.90565944
2,5, 1, 5, 0,20, 0.00,60.00,Thursday
213,277474200.2164087
6085,277474200.2164092
2,5, 1, 5, 0,21, 0.00,60.00,Thursday
213,271934039.1513093
6085,271934039.1513097
2,5, 1, 5, 0,22, 0.00,60.00,Thursday
213,252383560.96596015
6085,252383560.96596026
2,5, 1, 5, 0,23, 0.00,60.00,Thursday
213,217661301.24272043
6085,217661301.2427202
2,5, 1, 5, 0,24, 0.00,60.00,Thursday
213,188536321.1600148
6085,188536321.16001457
2,6, 1, 6, 0, 1, 0.00,60.00,Friday
213,170311811.24975732
6085,170311811.2497573
2,6, 1, 6, 0, 2, 0.00,60.00,Friday
213,167417682.19165435
6085,167417682.1916542
2,6, 1, 6, 0, 3, 0.00,60.00,Friday
213,166618060.55759156
6085,166618060.55759138
2,6, 1, 6, 0, 4, 0.00,60.00,Friday
213,166637624.99298355
6085,166637624.99298337
2,6, 1, 6, 0, 5, 0.00,60.00,Friday
213,170339463.20261383
6085,170339463.20261365
2,6, 1, 6, 0, 6, 0.00,60.00,Friday
213,186836506.26050773
6085,186836506.26050752
2,6, 1, 6, 0, 7, 0.00,60.00,Friday
213,211212207.6495533
6085,211212207.64955312
2,6, 1, 6, 0, 8, 0.00,60.00,Friday
213,213013455.8353994
6085,213013455.8353992
2,6, 1, 6, 0, 9, 0.00,60.00,Friday
213,198397217.3522622
6085,198397217.352262
2,6, 1, 6, 0,10, 0.00,60.00,Friday
213,182575820.71019033
6085,182575820.7101901
2,6, 1, 6, 0,11, 0.00,60.00,Friday
213,171733196.9739489
6085,171733196.97394872
2,6, 1, 6, 0,12, 0.00,60.00,Friday
213,181581979.7258591
6085,181581979.72585887
2,6, 1, 6, 0,13, 0.00,60.00,Friday
213,194335644.2438302
6085,194335644.24383003
2,6, 1, 6, 0,14, 0.00,60.00,Friday
213,204412639.6496059
6085,204412639.6496057
2,6, 1, 6, 0,15, 0.00,60.00,Friday
213,208772056.6920721
6085,208772056.6920719
2,6, 1, 6, 0,16, 0.00,60.00,Friday
213,217597715.84891734
6085,217597715.84891716
2,6, 1, 6, 0,17, 0.00,60.00,Friday
213,245091729.84940016
6085,245091729.84940028
2,6, 1, 6, 0,18, 0.00,60.00,Friday
213,275141317.11215854
6085,275141317.112159
2,6, 1, 6, 0,19, 0.00,60.00,Friday
213,292680840.9684723
6085,292680840.9684727
2,6, 1, 6, 0,20, 0.00,60.00,Friday
213,276288353.7919051
6085,276288353.7919056
2,6, 1, 6, 0,21, 0.00,60.00,Friday
213,268899801.25809926
6085,268899801.2580997
2,6, 1, 6, 0,22, 0.00,60.00,Friday
213,248570422.32848233
6085,248570422.32848245
2,6, 1, 6, 0,23, 0.00,60.00,Friday
213,213612427.98288488
6085,213612427.98288468
2,6, 1, 6, 0,24, 0.00,60.00,Friday
213,185872992.94826204
6085,185872992.9482618
2,7, 1, 7, 0, 1, 0.00,60.00,Saturday
213,167457774.86140463
6085,167457774.86140457
2,7, 1, 7, 0, 2, 0.00,60.00,Saturday
213,166016157.149786
6085,166016157.14978582
2,7, 1, 7, 0, 3, 0.00,60.00,Saturday
213,165834312.05554366
6085,165834312.05554345
2,7, 1, 7, 0, 4, 0.00,60.00,Saturday
213,165985898.71561265
6085,165985898.71561247
2,7, 1, 7, 0, 5, 0.00,60.00,Saturday
213,170445833.68461227
6085,170445833.68461207
2,7, 1, 7, 0, 6, 0.00,60.00,Saturday
213,188924205.0203429
6085,188924205.0203427
2,7, 1, 7, 0, 7, 0.00,60.00,Saturday
213,215621817.87271437
6085,215621817.8727142
2,7, 1, 7, 0, 8, 0.00,60.00,Saturday
213,217715917.71015263
6085,217715917.71015245
2,7, 1, 7, 0, 9, 0.00,60.00,Saturday
213,198853300.08958292
6085,198853300.08958274
2,7, 1, 7, 0,10, 0.00,60.00,Saturday
213,182215136.37524402
6085,182215136.37524378
2,7, 1, 7, 0,11, 0.00,60.00,Saturday
213,172688742.15399966
6085,172688742.15399945
2,7, 1, 7, 0,12, 0.00,60.00,Saturday
213,180558839.4620967
6085,180558839.46209648
2,7, 1, 7, 0,13, 0.00,60.00,Saturday
213,190365798.66157073
6085,190365798.66157055
2,7, 1, 7, 0,14, 0.00,60.00,Saturday
213,193745239.2451217
6085,193745239.24512145
2,7, 1, 7, 0,15, 0.00,60.00,Saturday
213,197669155.60310826
6085,197669155.60310802
2,7, 1, 7, 0,16, 0.00,60.00,Saturday
213,204194867.44484654
6085,204194867.44484636
2,7, 1, 7, 0,17, 0.00,60.00,Saturday
213,241214047.8664257
6085,241214047.8664255
2,7, 1, 7, 0,18, 0.00,60.00,Saturday
213,280518239.93483555
6085,280518239.934836
2,7, 1, 7, 0,19, 0.00,60.00,Saturday
213,295526394.323067
6085,295526394.3230674
2,7, 1, 7, 0,20, 0.00,60.00,Saturday
213,279434925.95839155
6085,279434925.9583921
2,7, 1, 7, 0,21, 0.00,60.00,Saturday
213,271756352.4036639
6085,271756352.40366435
2,7, 1, 7, 0,22, 0.00,60.00,Saturday
213,250261266.7151835
6085,250261266.7151837
2,7, 1, 7, 0,23, 0.00,60.00,Saturday
213,213619400.62738857
6085,213619400.6273884
2,7, 1, 7, 0,24, 0.00,60.00,Saturday
213,185368896.74166998
6085,185368896.74166974
2,8, 1, 8, 0, 1, 0.00,60.00,Sunday
213,164460958.06368965
6085,164460958.06368956
2,8, 1, 8, 0, 2, 0.00,60.00,Sunday
213,160888403.28147364
6085,160888403.28147343
2,8, 1, 8, 0, 3, 0.00,60.00,Sunday
213,161652813.6245284
6085,161652813.62452814
2,8, 1, 8, 0, 4, 0.00,60.00,Sunday
213,162368599.60746467
6085,162368599.60746455
2,8, 1, 8, 0, 5, 0.00,60.00,Sunday
213,166577053.27975482
6085,166577053.2797546
2,8, 1, 8, 0, 6, 0.00,60.00,Sunday
213,184502202.05096477
6085,184502202.05096456
2,8, 1, 8, 0, 7, 0.00,60.00,Sunday
213,212448619.0700521
6085,212448619.07005194
2,8, 1, 8, 0, 8, 0.00,60.00,Sunday
213,215643888.17956826
6085,215643888.1795681
2,8, 1, 8, 0, 9, 0.00,60.00,Sunday
213,196237169.25893024
6085,196237169.25893003
2,8, 1, 8, 0,10, 0.00,60.00,Sunday
213,186365378.4787646
6085,186365378.47876438
2,8, 1, 8, 0,11, 0.00,60.00,Sunday
213,194665848.57383022
6085,194665848.57383004
2,8, 1, 8, 0,12, 0.00,60.00,Sunday
213,218076103.43532372
6085,218076103.4353235
2,8, 1, 8, 0,13, 0.00,60.00,Sunday
213,230713121.8586836
6085,230713121.85868332
2,8, 1, 8, 0,14, 0.00,60.00,Sunday
213,234451450.9068518
6085,234451450.9068516
2,8, 1, 8, 0,15, 0.00,60.00,Sunday
213,237705127.81125423
6085,237705127.81125405
2,8, 1, 8, 0,16, 0.00,60.00,Sunday
213,236729309.13409072
6085,236729309.13409054
2,8, 1, 8, 0,17, 0.00,60.00,Sunday
213,266336858.65499645
6085,266336858.65499657
2,8, 1, 8, 0,18, 0.00,60.00,Sunday
213,300027358.66972405
6085,300027358.6697246
2,8, 1, 8, 0,19, 0.00,60.00,Sunday
213,307857959.87882376
6085,307857959.8788242
2,8, 1, 8, 0,20, 0.00,60.00,Sunday
213,287392748.0396026
6085,287392748.03960305
2,8, 1, 8, 0,21, 0.00,60.00,Sunday
213,276582090.1983209
6085,276582090.1983214
2,8, 1, 8, 0,22, 0.00,60.00,Sunday
213,253620718.0659932
6085,253620718.06599334
2,8, 1, 8, 0,23, 0.00,60.00,Sunday
213,214934841.58375728
6085,214934841.58375704
2,8, 1, 8, 0,24, 0.00,60.00,Sunday
213,182503013.20254403
6085,182503013.20254382
2,9, 1, 9, 0, 1, 0.00,60.00,Monday
213,162489037.30801326
6085,162489037.3080132
2,9, 1, 9, 0, 2, 0.00,60.00,Monday
213,159528146.39684138
6085,159528146.39684117
2,9, 1, 9, 0, 3, 0.00,60.00,Monday
213,158425988.56519616
6085,158425988.56519595
2,9, 1, 9, 0, 4, 0.00,60.00,Monday
213,157994536.6639132
6085,157994536.66391307
2,9, 1, 9, 0, 5, 0.00,60.00,Monday
213,164070413.95125225
6085,164070413.95125207
2,9, 1, 9, 0, 6, 0.00,60.00,Monday
213,182841526.88123858
6085,182841526.88123837
2,9, 1, 9, 0, 7, 0.00,60.00,Monday
213,212885428.97085205
6085,212885428.97085184
2,9, 1, 9, 0, 8, 0.00,60.00,Monday
213,215838128.738066
6085,215838128.73806578
2,9, 1, 9, 0, 9, 0.00,60.00,Monday
213,199179958.09866685
6085,199179958.09866664
2,9, 1, 9, 0,10, 0.00,60.00,Monday
213,190947116.73940414
6085,190947116.7394039
2,9, 1, 9, 0,11, 0.00,60.00,Monday
213,203602748.25689578
6085,203602748.25689554
2,9, 1, 9, 0,12, 0.00,60.00,Monday
213,233988890.1538551
6085,233988890.15385485
2,9, 1, 9, 0,13, 0.00,60.00,Monday
213,250485949.00131446
6085,250485949.00131428
2,9, 1, 9, 0,14, 0.00,60.00,Monday
213,259480417.9860617
6085,259480417.9860615
2,9, 1, 9, 0,15, 0.00,60.00,Monday
213,263503926.62933946
6085,263503926.62933934
2,9, 1, 9, 0,16, 0.00,60.00,Monday
213,268959419.8186353
6085,268959419.8186351
2,9, 1, 9, 0,17, 0.00,60.00,Monday
213,289573744.0644014
6085,289573744.0644016
2,9, 1, 9, 0,18, 0.00,60.00,Monday
213,308746179.7559487
6085,308746179.75594914
2,9, 1, 9, 0,19, 0.00,60.00,Monday
213,317899360.00117815
6085,317899360.00117856
2,9, 1, 9, 0,20, 0.00,60.00,Monday
213,294351444.2075578
6085,294351444.2075583
2,9, 1, 9, 0,21, 0.00,60.00,Monday
213,282527468.69834864
6085,282527468.6983492
2,9, 1, 9, 0,22, 0.00,60.00,Monday
213,257824615.27243072
6085,257824615.27243084
2,9, 1, 9, 0,23, 0.00,60.00,Monday
213,217533590.02811098
6085,217533590.0281108
2,9, 1, 9, 0,24, 0.00,60.00,Monday
213,184137545.46863258
6085,184137545.46863237
2,10, 1,10, 0, 1, 0.00,60.00,Tuesday
213,162243492.26240078
6085,162243492.2624007
2,10, 1,10, 0, 2, 0.00,60.00,Tuesday
213,158293402.951944
6085,158293402.9519438
2,10, 1,10, 0, 3, 0.00,60.00,Tuesday
213,157447227.7620368
6085,157447227.76203665
2,10, 1,10, 0, 4, 0.00,60.00,Tuesday
213,157377470.97563753
6085,157377470.9756374
2,10, 1,10, 0, 5, 0.00,60.00,Tuesday
213,161741395.58451417
6085,161741395.58451396
2,10, 1,10, 0, 6, 0.00,60.00,Tuesday
213,180758617.304201
6085,180758617.3042008
2,10, 1,10, 0, 7, 0.00,60.00,Tuesday
213,210120581.74801943
6085,210120581.74801928
2,10, 1,10, 0, 8, 0.00,60.00,Tuesday
213,213727325.19371068
6085,213727325.1937105
2,10, 1,10, 0, 9, 0.00,60.00,Tuesday
213,198535890.0930781
6085,198535890.09307787
2,10, 1,10, 0,10, 0.00,60.00,Tuesday
213,192948297.47690356
6085,192948297.47690338
2,10, 1,10, 0,11, 0.00,60.00,Tuesday
213,209169821.3145654
6085,209169821.31456524
2,10, 1,10, 0,12, 0.00,60.00,Tuesday
213,240493191.4848835
6085,240493191.4848833
2,10, 1,10, 0,13, 0.00,60.00,Tuesday
213,254815094.34105667
6085,254815094.34105653
2,10, 1,10, 0,14, 0.00,60.00,Tuesday
213,261603423.79484117
6085,261603423.79484096
2,10, 1,10, 0,15, 0.00,60.00,Tuesday
213,260117771.99839553
6085,260117771.9983954
2,10, 1,10, 0,16, 0.00,60.00,Tuesday
213,261128532.31855476
6085,261128532.31855455
2,10, 1,10, 0,17, 0.00,60.00,Tuesday
213,284816017.04990536
6085,284816017.04990554
2,10, 1,10, 0,18, 0.00,60.00,Tuesday
213,314479948.0163314
6085,314479948.0163319
2,10, 1,10, 0,19, 0.00,60.00,Tuesday
213,326828159.87290466
6085,326828159.87290514
2,10, 1,10, 0,20, 0.00,60.00,Tuesday
213,302876054.15518934
6085,302876054.1551899
2,10, 1,10, 0,21, 0.00,60.00,Tuesday
213,288849298.8011367
6085,288849298.80113715
2,10, 1,10, 0,22, 0.00,60.00,Tuesday
213,262423936.67925277
6085,262423936.67925292
2,10, 1,10, 0,23, 0.00,60.00,Tuesday
213,219806815.36941823
6085,219806815.36941805
2,10, 1,10, 0,24, 0.00,60.00,Tuesday
213,183702517.9778161
6085,183702517.97781593
2,11, 1,11, 0, 1, 0.00,60.00,Wednesday
213,157960292.83526173
6085,157960292.83526167
2,11, 1,11, 0, 2, 0.00,60.00,Wednesday
213,150784208.51733217
6085,150784208.51733196
2,11, 1,11, 0, 3, 0.00,60.00,Wednesday
213,147492994.98099923
6085,147492994.98099914
2,11, 1,11, 0, 4, 0.00,60.00,Wednesday
213,146386930.15152627
6085,146386930.15152624
2,11, 1,11, 0, 5, 0.00,60.00,Wednesday
213,149096502.42166838
6085,149096502.4216682
2,11, 1,11, 0, 6, 0.00,60.00,Wednesday
213,168984079.80113697
6085,168984079.80113673
2,11, 1,11, 0, 7, 0.00,60.00,Wednesday
213,200164601.55979753
6085,200164601.55979735
2,11, 1,11, 0, 8, 0.00,60.00,Wednesday
213,205589433.02531046
6085,205589433.02531025
2,11, 1,11, 0, 9, 0.00,60.00,Wednesday
213,193474067.6931163
6085,193474067.6931161
2,11, 1,11, 0,10, 0.00,60.00,Wednesday
213,184066477.39873788
6085,184066477.39873764
2,11, 1,11, 0,11, 0.00,60.00,Wednesday
213,173215697.1535462
6085,173215697.153546
2,11, 1,11, 0,12, 0.00,60.00,Wednesday
213,176115071.6072592
6085,176115071.60725898
2,11, 1,11, 0,13, 0.00,60.00,Wednesday
213,172851707.0033314
6085,172851707.00333124
2,11, 1,11, 0,14, 0.00,60.00,Wednesday
213,168552287.99430242
6085,168552287.99430218
2,11, 1,11, 0,15, 0.00,60.00,Wednesday
213,166675492.95444036
6085,166675492.95444018
2,11, 1,11, 0,16, 0.00,60.00,Wednesday
213,176277772.8651058
6085,176277772.8651056
2,11, 1,11, 0,17, 0.00,60.00,Wednesday
213,214077127.36179063
6085,214077127.36179045
2,11, 1,11, 0,18, 0.00,60.00,Wednesday
213,269366255.5529493
6085,269366255.5529497
2,11, 1,11, 0,19, 0.00,60.00,Wednesday
213,295672060.0669536
6085,295672060.0669541
2,11, 1,11, 0,20, 0.00,60.00,Wednesday
213,281017875.8364138
6085,281017875.83641434
2,11, 1,11, 0,21, 0.00,60.00,Wednesday
213,273877223.3893
6085,273877223.38930047
2,11, 1,11, 0,22, 0.00,60.00,Wednesday
213,252264344.48229867
6085,252264344.48229882
2,11, 1,11, 0,23, 0.00,60.00,Wednesday
213,216039310.10156807
6085,216039310.1015679
2,11, 1,11, 0,24, 0.00,60.00,Wednesday
213,185475734.7552852
6085,185475734.755285
2,12, 1,12, 0, 1, 0.00,60.00,Thursday
213,164326587.74400648
6085,164326587.74400643
2,12, 1,12, 0, 2, 0.00,60.00,Thursday
213,159391088.1110746
6085,159391088.1110744
2,12, 1,12, 0, 3, 0.00,60.00,Thursday
213,157856311.38757226
6085,157856311.38757205
2,12, 1,12, 0, 4, 0.00,60.00,Thursday
213,156816811.65352285
6085,156816811.65352273
2,12, 1,12, 0, 5, 0.00,60.00,Thursday
213,160249091.25183213
6085,160249091.25183195
2,12, 1,12, 0, 6, 0.00,60.00,Thursday
213,180845319.60212484
6085,180845319.60212463
2,12, 1,12, 0, 7, 0.00,60.00,Thursday
213,209682482.5535166
6085,209682482.55351642
2,12, 1,12, 0, 8, 0.00,60.00,Thursday
213,211028451.5481153
6085,211028451.5481151
2,12, 1,12, 0, 9, 0.00,60.00,Thursday
213,204811799.54702687
6085,204811799.5470267
2,12, 1,12, 0,10, 0.00,60.00,Thursday
213,193372896.88700962
6085,193372896.88700938
2,12, 1,12, 0,11, 0.00,60.00,Thursday
213,176328860.83536327
6085,176328860.8353631
2,12, 1,12, 0,12, 0.00,60.00,Thursday
213,180139124.0001496
6085,180139124.00014937
2,12, 1,12, 0,13, 0.00,60.00,Thursday
213,175662905.0780732
6085,175662905.07807302
2,12, 1,12, 0,14, 0.00,60.00,Thursday
213,167586583.52169284
6085,167586583.52169266
2,12, 1,12, 0,15, 0.00,60.00,Thursday
213,170294346.87580848
6085,170294346.87580827
2,12, 1,12, 0,16, 0.00,60.00,Thursday
213,180336070.58479908
6085,180336070.58479887
2,12, 1,12, 0,17, 0.00,60.00,Thursday
213,216265717.66811353
6085,216265717.6681134
2,12, 1,12, 0,18, 0.00,60.00,Thursday
213,273384785.43697256
6085,273384785.4369731
2,12, 1,12, 0,19, 0.00,60.00,Thursday
213,296440866.4132606
6085,296440866.413261
2,12, 1,12, 0,20, 0.00,60.00,Thursday
213,280599062.6155203
6085,280599062.6155207
2,12, 1,12, 0,21, 0.00,60.00,Thursday
213,277565090.9677599
6085,277565090.9677604
2,12, 1,12, 0,22, 0.00,60.00,Thursday
213,256885792.20061028
6085,256885792.20061037
2,12, 1,12, 0,23, 0.00,60.00,Thursday
213,219677104.21728322
6085,219677104.217283
2,12, 1,12, 0,24, 0.00,60.00,Thursday
213,193906259.7125512
6085,193906259.71255094
2,13, 1,13, 0, 1, 0.00,60.00,Friday
213,174976103.8911672
6085,174976103.8911671
2,13, 1,13, 0, 2, 0.00,60.00,Friday
213,168038824.2033449
6085,168038824.20334473
2,13, 1,13, 0, 3, 0.00,60.00,Friday
213,172983365.30961528
6085,172983365.30961508
2,13, 1,13, 0, 4, 0.00,60.00,Friday
213,171753712.94413525
6085,171753712.94413504
2,13, 1,13, 0, 5, 0.00,60.00,Friday
213,171069046.3570487
6085,171069046.35704845
2,13, 1,13, 0, 6, 0.00,60.00,Friday
213,192741938.31003773
6085,192741938.3100375
2,13, 1,13, 0, 7, 0.00,60.00,Friday
213,218131177.7368456
6085,218131177.73684543
2,13, 1,13, 0, 8, 0.00,60.00,Friday
213,216532243.92502147
6085,216532243.92502126
2,13, 1,13, 0, 9, 0.00,60.00,Friday
213,212494205.21440223
6085,212494205.214402
2,13, 1,13, 0,10, 0.00,60.00,Friday
213,201478357.79964945
6085,201478357.7996492
2,13, 1,13, 0,11, 0.00,60.00,Friday
213,186081162.52624696
6085,186081162.5262468
2,13, 1,13, 0,12, 0.00,60.00,Friday
213,185426219.48917884
6085,185426219.48917863
2,13, 1,13, 0,13, 0.00,60.00,Friday
213,180549529.5082511
6085,180549529.50825092
2,13, 1,13, 0,14, 0.00,60.00,Friday
213,178138906.05705515
6085,178138906.05705497
2,13, 1,13, 0,15, 0.00,60.00,Friday
213,176919564.77283412
6085,176919564.77283394
2,13, 1,13, 0,16, 0.00,60.00,Friday
213,186527911.89260417
6085,186527911.89260393
2,13, 1,13, 0,17, 0.00,60.00,Friday
213,223508122.51071608
6085,223508122.51071596
2,13, 1,13, 0,18, 0.00,60.00,Friday
213,276896079.2146156
6085,276896079.21461606
2,13, 1,13, 0,19, 0.00,60.00,Friday
213,296987226.64066565
6085,296987226.6406661
2,13, 1,13, 0,20, 0.00,60.00,Friday
213,283540371.5882162
6085,283540371.5882166
2,13, 1,13, 0,21, 0.00,60.00,Friday
213,282571942.8392848
6085,282571942.83928525
2,13, 1,13, 0,22, 0.00,60.00,Friday
213,263908429.47420096
6085,263908429.47420114
2,13, 1,13, 0,23, 0.00,60.00,Friday
213,227066047.1540833
6085,227066047.15408307
2,13, 1,13, 0,24, 0.00,60.00,Friday
213,198864781.88876793
6085,198864781.88876772
2,14, 1,14, 0, 1, 0.00,60.00,Saturday
213,181865729.44662252
6085,181865729.44662246
2,14, 1,14, 0, 2, 0.00,60.00,Saturday
213,178126209.49236146
6085,178126209.4923613
2,14, 1,14, 0, 3, 0.00,60.00,Saturday
213,181626792.99925548
6085,181626792.99925533
2,14, 1,14, 0, 4, 0.00,60.00,Saturday
213,180807274.0636456
6085,180807274.06364542
2,14, 1,14, 0, 5, 0.00,60.00,Saturday
213,180646673.6812662
6085,180646673.681266
2,14, 1,14, 0, 6, 0.00,60.00,Saturday
213,201668173.8559713
6085,201668173.85597107
2,14, 1,14, 0, 7, 0.00,60.00,Saturday
213,225208312.74263856
6085,225208312.74263835
2,14, 1,14, 0, 8, 0.00,60.00,Saturday
213,221976500.24785715
6085,221976500.24785703
2,14, 1,14, 0, 9, 0.00,60.00,Saturday
213,214234342.88451862
6085,214234342.88451838
2,14, 1,14, 0,10, 0.00,60.00,Saturday
213,203009435.23469853
6085,203009435.23469824
2,14, 1,14, 0,11, 0.00,60.00,Saturday
213,182356638.07441327
6085,182356638.07441306
2,14, 1,14, 0,12, 0.00,60.00,Saturday
213,192762370.67035824
6085,192762370.67035797
2,14, 1,14, 0,13, 0.00,60.00,Saturday
213,189802899.3797346
6085,189802899.3797344
2,14, 1,14, 0,14, 0.00,60.00,Saturday
213,178325832.42379096
6085,178325832.42379072
2,14, 1,14, 0,15, 0.00,60.00,Saturday
213,188023769.65534624
6085,188023769.65534604
2,14, 1,14, 0,16, 0.00,60.00,Saturday
213,198362864.67920324
6085,198362864.67920306
2,14, 1,14, 0,17, 0.00,60.00,Saturday
213,226177746.5278435
6085,226177746.52784336
2,14, 1,14, 0,18, 0.00,60.00,Saturday
213,283734166.96926415
6085,283734166.9692646
2,14, 1,14, 0,19, 0.00,60.00,Saturday
213,307493175.99670064
6085,307493175.9967012
2,14, 1,14, 0,20, 0.00,60.00,Saturday
213,290764364.99365133
6085,290764364.99365187
2,14, 1,14, 0,21, 0.00,60.00,Saturday
213,288529046.92317504
6085,288529046.92317545
2,14, 1,14, 0,22, 0.00,60.00,Saturday
213,268156506.83562276
6085,268156506.83562288
2,14, 1,14, 0,23, 0.00,60.00,Saturday
213,230429182.25224409
6085,230429182.25224394
2,14, 1,14, 0,24, 0.00,60.00,Saturday
213,204487398.715765
6085,204487398.71576476
2,15, 1,15, 0, 1, 0.00,60.00,Sunday
213,186168164.07197586
6085,186168164.07197577
2,15, 1,15, 0, 2, 0.00,60.00,Sunday
213,182845425.60651556
6085,182845425.6065154
2,15, 1,15, 0, 3, 0.00,60.00,Sunday
213,187773821.21725267
6085,187773821.21725252
2,15, 1,15, 0, 4, 0.00,60.00,Sunday
213,187241420.31495595
6085,187241420.31495583
2,15, 1,15, 0, 5, 0.00,60.00,Sunday
213,186158045.96287072
6085,186158045.96287054
2,15, 1,15, 0, 6, 0.00,60.00,Sunday
213,200634298.43347776
6085,200634298.43347758
2,15, 1,15, 0, 7, 0.00,60.00,Sunday
213,223528447.05205607
6085,223528447.0520559
2,15, 1,15, 0, 8, 0.00,60.00,Sunday
213,225527949.39886695
6085,225527949.3988667
2,15, 1,15, 0, 9, 0.00,60.00,Sunday
213,222167498.58387464
6085,222167498.58387437
2,15, 1,15, 0,10, 0.00,60.00,Sunday
213,213950202.46878877
6085,213950202.4687886
2,15, 1,15, 0,11, 0.00,60.00,Sunday
213,197385206.13990197
6085,197385206.13990173
2,15, 1,15, 0,12, 0.00,60.00,Sunday
213,198326378.90866905
6085,198326378.90866885
2,15, 1,15, 0,13, 0.00,60.00,Sunday
213,196242800.22115996
6085,196242800.2211598
2,15, 1,15, 0,14, 0.00,60.00,Sunday
213,193081588.45782658
6085,193081588.4578264
2,15, 1,15, 0,15, 0.00,60.00,Sunday
213,193105347.72632936
6085,193105347.72632912
2,15, 1,15, 0,16, 0.00,60.00,Sunday
213,204739957.2594581
6085,204739957.25945795
2,15, 1,15, 0,17, 0.00,60.00,Sunday
213,234815395.14122188
6085,234815395.14122167