Program Version,EnergyPlus, Version 26.1.0-6f2e40d102, YMD=2026.04.15 00:16
1,5,Environment Title[],Latitude[deg],Longitude[deg],Time Zone[],Elevation[m]
2,8,Day of Simulation[],Month[],Day of Month[],DST Indicator[1=yes 0=no],Hour[],StartMinute[],EndMinute[],DayType
3,5,Cumulative Day of Simulation[],Month[],Day of Month[],DST Indicator[1=yes 0=no],DayType  ! When Daily Meters Requested
4,2,Cumulative Days of Simulation[],Month[]  ! When Monthly Meters Requested
5,1,Cumulative Days of Simulation[] ! When Run Period Meters Requested
6,1,Calendar Year of Simulation[] ! When Annual Meters Requested
213,1,Electricity:Facility [J] !Hourly
5925,1,ElectricityNet:Facility [J] !Hourly
End of Data Dictionary
1,RUNPERIOD 1,  28.11, 112.79,   8.00, 120.00
2,1, 1, 1, 0, 1, 0.00,60.00,Sunday
213,77287196.80288169
5925,77287196.80288166
2,1, 1, 1, 0, 2, 0.00,60.00,Sunday
213,81553556.86278024
5925,81553556.86278023
2,1, 1, 1, 0, 3, 0.00,60.00,Sunday
213,86401252.33986013
5925,86401252.33986011
2,1, 1, 1, 0, 4, 0.00,60.00,Sunday
213,79706499.88812158
5925,79706499.88812156
2,1, 1, 1, 0, 5, 0.00,60.00,Sunday
213,89666145.2040859
5925,89666145.2040859
2,1, 1, 1, 0, 6, 0.00,60.00,Sunday
213,116319921.17745663
5925,116319921.17745665
2,1, 1, 1, 0, 7, 0.00,60.00,Sunday
213,181712366.2709924
5925,181712366.2709924
2,1, 1, 1, 0, 8, 0.00,60.00,Sunday
213,185907912.5915158
5925,185907912.5915158
2,1, 1, 1, 0, 9, 0.00,60.00,Sunday
213,165599421.37448776
5925,165599421.37448773
2,1, 1, 1, 0,10, 0.00,60.00,Sunday
213,145743347.31547046
5925,145743347.31547043
2,1, 1, 1, 0,11, 0.00,60.00,Sunday
213,146790235.6856065
5925,146790235.68560648
2,1, 1, 1, 0,12, 0.00,60.00,Sunday
213,128062791.60238665
5925,128062791.60238664
2,1, 1, 1, 0,13, 0.00,60.00,Sunday
213,117200258.52303061
5925,117200258.52303061
2,1, 1, 1, 0,14, 0.00,60.00,Sunday
213,122882216.7880639
5925,122882216.78806388
2,1, 1, 1, 0,15, 0.00,60.00,Sunday
213,101793887.73878337
5925,101793887.73878337
2,1, 1, 1, 0,16, 0.00,60.00,Sunday
213,127535613.36971746
5925,127535613.36971748
2,1, 1, 1, 0,17, 0.00,60.00,Sunday
213,147720839.74546003
5925,147720839.74546003
2,1, 1, 1, 0,18, 0.00,60.00,Sunday
213,188357249.49912217
5925,188357249.4991225
2,1, 1, 1, 0,19, 0.00,60.00,Sunday
213,226359354.10148382
5925,226359354.10148412
2,1, 1, 1, 0,20, 0.00,60.00,Sunday
213,209905307.70483965
5925,209905307.70483994
2,1, 1, 1, 0,21, 0.00,60.00,Sunday
213,212977405.3478903
5925,212977405.34789068
2,1, 1, 1, 0,22, 0.00,60.00,Sunday
213,183737678.95577627
5925,183737678.95577627
2,1, 1, 1, 0,23, 0.00,60.00,Sunday
213,154554120.3020914
5925,154554120.30209136
2,1, 1, 1, 0,24, 0.00,60.00,Sunday
213,116137514.33219273
5925,116137514.33219273
2,2, 1, 2, 0, 1, 0.00,60.00,Holiday
213,84463142.0709436
5925,84463142.07094355
2,2, 1, 2, 0, 2, 0.00,60.00,Holiday
213,87873282.9086342
5925,87873282.90863419
2,2, 1, 2, 0, 3, 0.00,60.00,Holiday
213,76344207.05664869
5925,76344207.05664867
2,2, 1, 2, 0, 4, 0.00,60.00,Holiday
213,77084493.32154605
5925,77084493.321546
2,2, 1, 2, 0, 5, 0.00,60.00,Holiday
213,89873017.74576451
5925,89873017.74576451
2,2, 1, 2, 0, 6, 0.00,60.00,Holiday
213,116532323.79736355
5925,116532323.79736352
2,2, 1, 2, 0, 7, 0.00,60.00,Holiday
213,182065032.45767462
5925,182065032.45767453
2,2, 1, 2, 0, 8, 0.00,60.00,Holiday
213,186282904.53181463
5925,186282904.53181466
2,2, 1, 2, 0, 9, 0.00,60.00,Holiday
213,165917993.42708892
5925,165917993.42708892
2,2, 1, 2, 0,10, 0.00,60.00,Holiday
213,146072956.6883694
5925,146072956.6883694
2,2, 1, 2, 0,11, 0.00,60.00,Holiday
213,147206045.07908756
5925,147206045.07908753
2,2, 1, 2, 0,12, 0.00,60.00,Holiday
213,133685768.95171377
5925,133685768.95171374
2,2, 1, 2, 0,13, 0.00,60.00,Holiday
213,125389353.12775901
5925,125389353.12775901
2,2, 1, 2, 0,14, 0.00,60.00,Holiday
213,109932033.92864779
5925,109932033.92864779
2,2, 1, 2, 0,15, 0.00,60.00,Holiday
213,115138655.35867786
5925,115138655.3586778
2,2, 1, 2, 0,16, 0.00,60.00,Holiday
213,114055980.77122313
5925,114055980.77122311
2,2, 1, 2, 0,17, 0.00,60.00,Holiday
213,155157952.07944685
5925,155157952.07944682
2,2, 1, 2, 0,18, 0.00,60.00,Holiday
213,185263190.28335133
5925,185263190.28335172
2,2, 1, 2, 0,19, 0.00,60.00,Holiday
213,226557531.52162504
5925,226557531.5216254
2,2, 1, 2, 0,20, 0.00,60.00,Holiday
213,216220743.16497564
5925,216220743.16497594
2,2, 1, 2, 0,21, 0.00,60.00,Holiday
213,202273482.1094329
5925,202273482.1094332
2,2, 1, 2, 0,22, 0.00,60.00,Holiday
213,181354002.23105592
5925,181354002.23105595
2,2, 1, 2, 0,23, 0.00,60.00,Holiday
213,154757345.57319218
5925,154757345.57319218
2,2, 1, 2, 0,24, 0.00,60.00,Holiday
213,116393832.6147026
5925,116393832.6147026
2,3, 1, 3, 0, 1, 0.00,60.00,Tuesday
213,97826406.45589784
5925,97826406.45589781
2,3, 1, 3, 0, 2, 0.00,60.00,Tuesday
213,82058675.38029897
5925,82058675.38029894
2,3, 1, 3, 0, 3, 0.00,60.00,Tuesday
213,73816720.41727842
5925,73816720.41727841
2,3, 1, 3, 0, 4, 0.00,60.00,Tuesday
213,86277178.88438964
5925,86277178.88438962
2,3, 1, 3, 0, 5, 0.00,60.00,Tuesday
213,84070845.62996155
5925,84070845.62996152
2,3, 1, 3, 0, 6, 0.00,60.00,Tuesday
213,116971235.7002793
5925,116971235.70027928
2,3, 1, 3, 0, 7, 0.00,60.00,Tuesday
213,182425714.13722795
5925,182425714.13722792
2,3, 1, 3, 0, 8, 0.00,60.00,Tuesday
213,179202671.38558257
5925,179202671.38558248
2,3, 1, 3, 0, 9, 0.00,60.00,Tuesday
213,178057900.03808677
5925,178057900.03808674
2,3, 1, 3, 0,10, 0.00,60.00,Tuesday
213,156552251.1232543
5925,156552251.1232543
2,3, 1, 3, 0,11, 0.00,60.00,Tuesday
213,145668071.82089233
5925,145668071.82089233
2,3, 1, 3, 0,12, 0.00,60.00,Tuesday
213,130785189.07831128
5925,130785189.07831126
2,3, 1, 3, 0,13, 0.00,60.00,Tuesday
213,129317309.78632137
5925,129317309.78632137
2,3, 1, 3, 0,14, 0.00,60.00,Tuesday
213,114359464.96889147
5925,114359464.96889144
2,3, 1, 3, 0,15, 0.00,60.00,Tuesday
213,126933713.23904052
5925,126933713.23904048
2,3, 1, 3, 0,16, 0.00,60.00,Tuesday
213,131978539.51466253
5925,131978539.51466247
2,3, 1, 3, 0,17, 0.00,60.00,Tuesday
213,139045319.26133358
5925,139045319.2613336
2,3, 1, 3, 0,18, 0.00,60.00,Tuesday
213,199596702.14153925
5925,199596702.14153957
2,3, 1, 3, 0,19, 0.00,60.00,Tuesday
213,213216587.79763383
5925,213216587.79763418
2,3, 1, 3, 0,20, 0.00,60.00,Tuesday
213,223953026.54506066
5925,223953026.545061
2,3, 1, 3, 0,21, 0.00,60.00,Tuesday
213,199847114.44495925
5925,199847114.44495955
2,3, 1, 3, 0,22, 0.00,60.00,Tuesday
213,184074895.43958288
5925,184074895.43958294
2,3, 1, 3, 0,23, 0.00,60.00,Tuesday
213,154928437.9520723
5925,154928437.9520723
2,3, 1, 3, 0,24, 0.00,60.00,Tuesday
213,116407660.38734162
5925,116407660.38734162
2,4, 1, 4, 0, 1, 0.00,60.00,Wednesday
213,90814538.32122426
5925,90814538.32122423
2,4, 1, 4, 0, 2, 0.00,60.00,Wednesday
213,82181823.90426312
5925,82181823.9042631
2,4, 1, 4, 0, 3, 0.00,60.00,Wednesday
213,87154491.927436
5925,87154491.92743598
2,4, 1, 4, 0, 4, 0.00,60.00,Wednesday
213,80441683.90366495
5925,80441683.90366493
2,4, 1, 4, 0, 5, 0.00,60.00,Wednesday
213,77222266.5258998
5925,77222266.52589978
2,4, 1, 4, 0, 6, 0.00,60.00,Wednesday
213,117031364.23994622
5925,117031364.23994622
2,4, 1, 4, 0, 7, 0.00,60.00,Wednesday
213,182454478.01166168
5925,182454478.01166168
2,4, 1, 4, 0, 8, 0.00,60.00,Wednesday
213,187013251.53376648
5925,187013251.53376648
2,4, 1, 4, 0, 9, 0.00,60.00,Wednesday
213,170552431.75441113
5925,170552431.7544111
2,4, 1, 4, 0,10, 0.00,60.00,Wednesday
213,164171085.2299189
5925,164171085.2299189
2,4, 1, 4, 0,11, 0.00,60.00,Wednesday
213,137895501.35063726
5925,137895501.35063723
2,4, 1, 4, 0,12, 0.00,60.00,Wednesday
213,137434667.77956572
5925,137434667.77956572
2,4, 1, 4, 0,13, 0.00,60.00,Wednesday
213,128373243.90235019
5925,128373243.90235017
2,4, 1, 4, 0,14, 0.00,60.00,Wednesday
213,126726926.92203644
5925,126726926.92203642
2,4, 1, 4, 0,15, 0.00,60.00,Wednesday
213,105634173.146983
5925,105634173.14698297
2,4, 1, 4, 0,16, 0.00,60.00,Wednesday
213,131274848.99607615
5925,131274848.99607615
2,4, 1, 4, 0,17, 0.00,60.00,Wednesday
213,158990177.40558806
5925,158990177.405588
2,4, 1, 4, 0,18, 0.00,60.00,Wednesday
213,185592698.94108424
5925,185592698.94108456
2,4, 1, 4, 0,19, 0.00,60.00,Wednesday
213,226427033.28882217
5925,226427033.2888225
2,4, 1, 4, 0,20, 0.00,60.00,Wednesday
213,202318421.05613068
5925,202318421.056131
2,4, 1, 4, 0,21, 0.00,60.00,Wednesday
213,218006824.3357713
5925,218006824.33577156
2,4, 1, 4, 0,22, 0.00,60.00,Wednesday
213,178893339.7756836
5925,178893339.77568364
2,4, 1, 4, 0,23, 0.00,60.00,Wednesday
213,141119701.42975485
5925,141119701.42975485
2,4, 1, 4, 0,24, 0.00,60.00,Wednesday
213,129307440.9706024
5925,129307440.97060241
2,5, 1, 5, 0, 1, 0.00,60.00,Thursday
213,84418354.77456906
5925,84418354.77456903
2,5, 1, 5, 0, 2, 0.00,60.00,Thursday
213,94832951.0757628
5925,94832951.07576278
2,5, 1, 5, 0, 3, 0.00,60.00,Thursday
213,73558936.4517127
5925,73558936.4517127
2,5, 1, 5, 0, 4, 0.00,60.00,Thursday
213,72920011.92365849
5925,72920011.92365845
2,5, 1, 5, 0, 5, 0.00,60.00,Thursday
213,96747851.56581792
5925,96747851.56581792
2,5, 1, 5, 0, 6, 0.00,60.00,Thursday
213,116588323.93358147
5925,116588323.93358146
2,5, 1, 5, 0, 7, 0.00,60.00,Thursday
213,182218085.17129657
5925,182218085.17129657
2,5, 1, 5, 0, 8, 0.00,60.00,Thursday
213,179073591.28203762
5925,179073591.28203762
2,5, 1, 5, 0, 9, 0.00,60.00,Thursday
213,177565794.5999304
5925,177565794.5999304
2,5, 1, 5, 0,10, 0.00,60.00,Thursday
213,141907328.57185984
5925,141907328.57185978
2,5, 1, 5, 0,11, 0.00,60.00,Thursday
213,157763430.2306849
5925,157763430.23068488
2,5, 1, 5, 0,12, 0.00,60.00,Thursday
213,129205774.69002292
5925,129205774.69002292
2,5, 1, 5, 0,13, 0.00,60.00,Thursday
213,121637426.14363024
5925,121637426.14363022
2,5, 1, 5, 0,14, 0.00,60.00,Thursday
213,118646564.76778331
5925,118646564.76778331
2,5, 1, 5, 0,15, 0.00,60.00,Thursday
213,125020730.99906234
5925,125020730.99906233
2,5, 1, 5, 0,16, 0.00,60.00,Thursday
213,116748327.23388359
5925,116748327.23388356
2,5, 1, 5, 0,17, 0.00,60.00,Thursday
213,150828920.7362889
5925,150828920.7362889
2,5, 1, 5, 0,18, 0.00,60.00,Thursday
213,184879857.04269004
5925,184879857.04269037
2,5, 1, 5, 0,19, 0.00,60.00,Thursday
213,225926932.2355333
5925,225926932.23553362
2,5, 1, 5, 0,20, 0.00,60.00,Thursday
213,223099223.24297613
5925,223099223.24297643
2,5, 1, 5, 0,21, 0.00,60.00,Thursday
213,199061132.14195415
5925,199061132.14195448
2,5, 1, 5, 0,22, 0.00,60.00,Thursday
213,183257621.3571357
5925,183257621.3571357
2,5, 1, 5, 0,23, 0.00,60.00,Thursday
213,153912229.47123122
5925,153912229.47123122
2,5, 1, 5, 0,24, 0.00,60.00,Thursday
213,115220411.3554524
5925,115220411.35545239
2,6, 1, 6, 0, 1, 0.00,60.00,Friday
213,86445458.16502823
5925,86445458.16502821
2,6, 1, 6, 0, 2, 0.00,60.00,Friday
213,83930141.55630152
5925,83930141.5563015
2,6, 1, 6, 0, 3, 0.00,60.00,Friday
213,77002778.23544174
5925,77002778.23544173
2,6, 1, 6, 0, 4, 0.00,60.00,Friday
213,87725754.28463177
5925,87725754.28463177
2,6, 1, 6, 0, 5, 0.00,60.00,Friday
213,75926630.76853365
5925,75926630.76853363
2,6, 1, 6, 0, 6, 0.00,60.00,Friday
213,115740358.9403708
5925,115740358.94037078
2,6, 1, 6, 0, 7, 0.00,60.00,Friday
213,182280640.70806772
5925,182280640.70806774
2,6, 1, 6, 0, 8, 0.00,60.00,Friday
213,185041551.43925923
5925,185041551.43925923
2,6, 1, 6, 0, 9, 0.00,60.00,Friday
213,169108524.8093618
5925,169108524.80936173
2,6, 1, 6, 0,10, 0.00,60.00,Friday
213,162493051.47012532
5925,162493051.47012532
2,6, 1, 6, 0,11, 0.00,60.00,Friday
213,136379392.2796161
5925,136379392.2796161
2,6, 1, 6, 0,12, 0.00,60.00,Friday
213,137235482.47373965
5925,137235482.47373968
2,6, 1, 6, 0,13, 0.00,60.00,Friday
213,130445597.67292258
5925,130445597.67292258
2,6, 1, 6, 0,14, 0.00,60.00,Friday
213,117077977.66866708
5925,117077977.6686671
2,6, 1, 6, 0,15, 0.00,60.00,Friday
213,127800007.64890926
5925,127800007.64890924
2,6, 1, 6, 0,16, 0.00,60.00,Friday
213,128060399.34745023
5925,128060399.3474502
2,6, 1, 6, 0,17, 0.00,60.00,Friday
213,153928792.96783847
5925,153928792.96783847
2,6, 1, 6, 0,18, 0.00,60.00,Friday
213,198751163.65843394
5925,198751163.65843427
2,6, 1, 6, 0,19, 0.00,60.00,Friday
213,212171358.5149858
5925,212171358.51498613
2,6, 1, 6, 0,20, 0.00,60.00,Friday
213,215457175.2736861
5925,215457175.2736864
2,6, 1, 6, 0,21, 0.00,60.00,Friday
213,204368136.25605106
5925,204368136.2560514
2,6, 1, 6, 0,22, 0.00,60.00,Friday
213,177542078.2989041
5925,177542078.29890406
2,6, 1, 6, 0,23, 0.00,60.00,Friday
213,156275159.4614283
5925,156275159.4614283
2,6, 1, 6, 0,24, 0.00,60.00,Friday
213,112521202.86206111
5925,112521202.8620611
2,7, 1, 7, 0, 1, 0.00,60.00,Saturday
213,96408078.24702477
5925,96408078.24702474
2,7, 1, 7, 0, 2, 0.00,60.00,Saturday
213,79170153.15075724
5925,79170153.15075722
2,7, 1, 7, 0, 3, 0.00,60.00,Saturday
213,82363399.8976159
5925,82363399.89761588
2,7, 1, 7, 0, 4, 0.00,60.00,Saturday
213,79474057.86329125
5925,79474057.86329123
2,7, 1, 7, 0, 5, 0.00,60.00,Saturday
213,81162924.40065667
5925,81162924.40065666
2,7, 1, 7, 0, 6, 0.00,60.00,Saturday
213,118852430.952952
5925,118852430.952952
2,7, 1, 7, 0, 7, 0.00,60.00,Saturday
213,178925273.3404303
5925,178925273.34043026
2,7, 1, 7, 0, 8, 0.00,60.00,Saturday
213,182390438.82135427
5925,182390438.82135427
2,7, 1, 7, 0, 9, 0.00,60.00,Saturday
213,168954245.7153585
5925,168954245.7153585
2,7, 1, 7, 0,10, 0.00,60.00,Saturday
213,154824068.40031248
5925,154824068.40031245
2,7, 1, 7, 0,11, 0.00,60.00,Saturday
213,136179275.56943244
5925,136179275.56943244
2,7, 1, 7, 0,12, 0.00,60.00,Saturday
213,128740265.43394871
5925,128740265.43394868
2,7, 1, 7, 0,13, 0.00,60.00,Saturday
213,125075422.46369751
5925,125075422.4636975
2,7, 1, 7, 0,14, 0.00,60.00,Saturday
213,121785873.34039283
5925,121785873.3403928
2,7, 1, 7, 0,15, 0.00,60.00,Saturday
213,106920679.47559595
5925,106920679.47559592
2,7, 1, 7, 0,16, 0.00,60.00,Saturday
213,129532218.04242586
5925,129532218.04242584
2,7, 1, 7, 0,17, 0.00,60.00,Saturday
213,144525430.9079486
5925,144525430.9079486
2,7, 1, 7, 0,18, 0.00,60.00,Saturday
213,193821802.24748927
5925,193821802.2474896
2,7, 1, 7, 0,19, 0.00,60.00,Saturday
213,217241275.7265266
5925,217241275.72652695
2,7, 1, 7, 0,20, 0.00,60.00,Saturday
213,214156967.76151657
5925,214156967.7615169
2,7, 1, 7, 0,21, 0.00,60.00,Saturday
213,207030640.5953914
5925,207030640.59539175
2,7, 1, 7, 0,22, 0.00,60.00,Saturday
213,181280325.9768419
5925,181280325.97684193
2,7, 1, 7, 0,23, 0.00,60.00,Saturday
213,154714716.1825259
5925,154714716.1825259
2,7, 1, 7, 0,24, 0.00,60.00,Saturday
213,115032501.72904137
5925,115032501.72904135
2,8, 1, 8, 0, 1, 0.00,60.00,Sunday
213,85835673.71309042
5925,85835673.71309039
2,8, 1, 8, 0, 2, 0.00,60.00,Sunday
213,85111307.1270659
5925,85111307.1270659
2,8, 1, 8, 0, 3, 0.00,60.00,Sunday
213,81338811.61367753
5925,81338811.61367753
2,8, 1, 8, 0, 4, 0.00,60.00,Sunday
213,75581669.74819955
5925,75581669.74819952
2,8, 1, 8, 0, 5, 0.00,60.00,Sunday
213,87379567.67062992
5925,87379567.6706299
2,8, 1, 8, 0, 6, 0.00,60.00,Sunday
213,116068640.68657163
5925,116068640.68657163
2,8, 1, 8, 0, 7, 0.00,60.00,Sunday
213,181419529.45003834
5925,181419529.45003837
2,8, 1, 8, 0, 8, 0.00,60.00,Sunday
213,182119971.28855434
5925,182119971.28855434
2,8, 1, 8, 0, 9, 0.00,60.00,Sunday
213,169023509.31635764
5925,169023509.3163576
2,8, 1, 8, 0,10, 0.00,60.00,Sunday
213,147012851.6372302
5925,147012851.6372302
2,8, 1, 8, 0,11, 0.00,60.00,Sunday
213,145106288.5693509
5925,145106288.56935087
2,8, 1, 8, 0,12, 0.00,60.00,Sunday
213,134541113.20086235
5925,134541113.20086235
2,8, 1, 8, 0,13, 0.00,60.00,Sunday
213,135360829.36501557
5925,135360829.36501557
2,8, 1, 8, 0,14, 0.00,60.00,Sunday
213,125078835.58590439
5925,125078835.58590439
2,8, 1, 8, 0,15, 0.00,60.00,Sunday
213,125784455.35391942
5925,125784455.3539194
2,8, 1, 8, 0,16, 0.00,60.00,Sunday
213,132236018.3137187
5925,132236018.3137187
2,8, 1, 8, 0,17, 0.00,60.00,Sunday
213,157435506.07598242
5925,157435506.07598242
2,8, 1, 8, 0,18, 0.00,60.00,Sunday
213,198786169.75908703
5925,198786169.75908735
2,8, 1, 8, 0,19, 0.00,60.00,Sunday
213,220647081.79444292
5925,220647081.79444325
2,8, 1, 8, 0,20, 0.00,60.00,Sunday
213,219045784.66826433
5925,219045784.66826463
2,8, 1, 8, 0,21, 0.00,60.00,Sunday
213,207054201.8616856
5925,207054201.86168587
2,8, 1, 8, 0,22, 0.00,60.00,Sunday
213,184090227.1991569
5925,184090227.19915688
2,8, 1, 8, 0,23, 0.00,60.00,Sunday
213,148654250.01936087
5925,148654250.0193609
2,8, 1, 8, 0,24, 0.00,60.00,Sunday
213,116691675.7460857
5925,116691675.74608567
2,9, 1, 9, 0, 1, 0.00,60.00,Monday
213,93559611.35536359
5925,93559611.35536355
2,9, 1, 9, 0, 2, 0.00,60.00,Monday
213,74513312.35567561
5925,74513312.35567561
2,9, 1, 9, 0, 3, 0.00,60.00,Monday
213,84669516.01105747
5925,84669516.01105745
2,9, 1, 9, 0, 4, 0.00,60.00,Monday
213,78845069.8554757
5925,78845069.85547568
2,9, 1, 9, 0, 5, 0.00,60.00,Monday
213,84628631.63679707
5925,84628631.63679706
2,9, 1, 9, 0, 6, 0.00,60.00,Monday
213,113187289.9246314
5925,113187289.92463139
2,9, 1, 9, 0, 7, 0.00,60.00,Monday
213,183972184.15812948
5925,183972184.15812945
2,9, 1, 9, 0, 8, 0.00,60.00,Monday
213,183934996.93249524
5925,183934996.93249524
2,9, 1, 9, 0, 9, 0.00,60.00,Monday
213,167692257.3227764
5925,167692257.32277638
2,9, 1, 9, 0,10, 0.00,60.00,Monday
213,158136185.72167578
5925,158136185.72167578
2,9, 1, 9, 0,11, 0.00,60.00,Monday
213,147011460.94465345
5925,147011460.94465342
2,9, 1, 9, 0,12, 0.00,60.00,Monday
213,144433773.93036047
5925,144433773.93036047
2,9, 1, 9, 0,13, 0.00,60.00,Monday
213,139997783.15652078
5925,139997783.15652078
2,9, 1, 9, 0,14, 0.00,60.00,Monday
213,145578924.52287498
5925,145578924.522875
2,9, 1, 9, 0,15, 0.00,60.00,Monday
213,133977025.03403977
5925,133977025.03403974
2,9, 1, 9, 0,16, 0.00,60.00,Monday
213,150353487.16034284
5925,150353487.16034284
2,9, 1, 9, 0,17, 0.00,60.00,Monday
213,173268010.236345
5925,173268010.236345
2,9, 1, 9, 0,18, 0.00,60.00,Monday
213,194970711.3452272
5925,194970711.3452275
2,9, 1, 9, 0,19, 0.00,60.00,Monday
213,230984120.40886283
5925,230984120.4088632
2,9, 1, 9, 0,20, 0.00,60.00,Monday
213,210904553.91377676
5925,210904553.9137771
2,9, 1, 9, 0,21, 0.00,60.00,Monday
213,218040041.00764856
5925,218040041.0076489
2,9, 1, 9, 0,22, 0.00,60.00,Monday
213,179054355.09081033
5925,179054355.09081033
2,9, 1, 9, 0,23, 0.00,60.00,Monday
213,152275515.41918883
5925,152275515.41918883
2,9, 1, 9, 0,24, 0.00,60.00,Monday
213,119623906.7326432
5925,119623906.73264317
2,10, 1,10, 0, 1, 0.00,60.00,Tuesday
213,81214769.98742157
5925,81214769.98742153
2,10, 1,10, 0, 2, 0.00,60.00,Tuesday
213,92547225.44298363
5925,92547225.44298363
2,10, 1,10, 0, 3, 0.00,60.00,Tuesday
213,73604424.5386079
5925,73604424.53860788
2,10, 1,10, 0, 4, 0.00,60.00,Tuesday
213,77109036.31516854
5925,77109036.31516853
2,10, 1,10, 0, 5, 0.00,60.00,Tuesday
213,90681774.6418069
5925,90681774.64180687
2,10, 1,10, 0, 6, 0.00,60.00,Tuesday
213,115779380.28842698
5925,115779380.28842695
2,10, 1,10, 0, 7, 0.00,60.00,Tuesday
213,181495998.67489156
5925,181495998.6748916
2,10, 1,10, 0, 8, 0.00,60.00,Tuesday
213,184336493.59267482
5925,184336493.59267473
2,10, 1,10, 0, 9, 0.00,60.00,Tuesday
213,171249679.8999452
5925,171249679.89994523
2,10, 1,10, 0,10, 0.00,60.00,Tuesday
213,148517004.5488213
5925,148517004.54882127
2,10, 1,10, 0,11, 0.00,60.00,Tuesday
213,156179982.4743319
5925,156179982.4743319
2,10, 1,10, 0,12, 0.00,60.00,Tuesday
213,147398450.4716126
5925,147398450.47161257
2,10, 1,10, 0,13, 0.00,60.00,Tuesday
213,141779736.43548185
5925,141779736.43548185
2,10, 1,10, 0,14, 0.00,60.00,Tuesday
213,139674778.94002953
5925,139674778.94002953
2,10, 1,10, 0,15, 0.00,60.00,Tuesday
213,140262654.5792688
5925,140262654.57926887
2,10, 1,10, 0,16, 0.00,60.00,Tuesday
213,135394422.09819505
5925,135394422.09819502
2,10, 1,10, 0,17, 0.00,60.00,Tuesday
213,166001695.59727082
5925,166001695.5972708
2,10, 1,10, 0,18, 0.00,60.00,Tuesday
213,198662562.92152098
5925,198662562.9215213
2,10, 1,10, 0,19, 0.00,60.00,Tuesday
213,229706940.01591724
5925,229706940.01591754
2,10, 1,10, 0,20, 0.00,60.00,Tuesday
213,225811905.1920416
5925,225811905.19204193
2,10, 1,10, 0,21, 0.00,60.00,Tuesday
213,208910455.25445747
5925,208910455.25445777
2,10, 1,10, 0,22, 0.00,60.00,Tuesday
213,185724385.56057465
5925,185724385.56057477
2,10, 1,10, 0,23, 0.00,60.00,Tuesday
213,156636996.19891542
5925,156636996.19891542
2,10, 1,10, 0,24, 0.00,60.00,Tuesday
213,116649747.27070859
5925,116649747.27070859
2,11, 1,11, 0, 1, 0.00,60.00,Wednesday
213,88539212.29495338
5925,88539212.29495335
2,11, 1,11, 0, 2, 0.00,60.00,Wednesday
213,83618187.22761223
5925,83618187.22761221
2,11, 1,11, 0, 3, 0.00,60.00,Wednesday
213,75498575.26854475
5925,75498575.26854475
2,11, 1,11, 0, 4, 0.00,60.00,Wednesday
213,83667150.90285712
5925,83667150.90285711
2,11, 1,11, 0, 5, 0.00,60.00,Wednesday
213,81037701.38550682
5925,81037701.38550681
2,11, 1,11, 0, 6, 0.00,60.00,Wednesday
213,114972518.74593739
5925,114972518.74593739
2,11, 1,11, 0, 7, 0.00,60.00,Wednesday
213,181626846.94581237
5925,181626846.94581234
2,11, 1,11, 0, 8, 0.00,60.00,Wednesday
213,182258465.9510483
5925,182258465.9510483
2,11, 1,11, 0, 9, 0.00,60.00,Wednesday
213,171948861.85804772
5925,171948861.8580477
2,11, 1,11, 0,10, 0.00,60.00,Wednesday
213,158812759.97405806
5925,158812759.97405806
2,11, 1,11, 0,11, 0.00,60.00,Wednesday
213,141078888.33448437
5925,141078888.33448437
2,11, 1,11, 0,12, 0.00,60.00,Wednesday
213,134404166.69367933
5925,134404166.6936793
2,11, 1,11, 0,13, 0.00,60.00,Wednesday
213,128937048.01684612
5925,128937048.01684609
2,11, 1,11, 0,14, 0.00,60.00,Wednesday
213,120611979.51546381
5925,120611979.5154638
2,11, 1,11, 0,15, 0.00,60.00,Wednesday
213,112977720.6569861
5925,112977720.65698609
2,11, 1,11, 0,16, 0.00,60.00,Wednesday
213,128774408.67798945
5925,128774408.67798944
2,11, 1,11, 0,17, 0.00,60.00,Wednesday
213,149241332.08111754
5925,149241332.0811175
2,11, 1,11, 0,18, 0.00,60.00,Wednesday
213,192342826.21731046
5925,192342826.2173108
2,11, 1,11, 0,19, 0.00,60.00,Wednesday
213,219091575.24926868
5925,219091575.24926907
2,11, 1,11, 0,20, 0.00,60.00,Wednesday
213,212248122.24098304
5925,212248122.24098337
2,11, 1,11, 0,21, 0.00,60.00,Wednesday
213,209828518.14816624
5925,209828518.14816657
2,11, 1,11, 0,22, 0.00,60.00,Wednesday
213,180155859.35897693
5925,180155859.35897693
2,11, 1,11, 0,23, 0.00,60.00,Wednesday
213,149473734.03402892
5925,149473734.0340289
2,11, 1,11, 0,24, 0.00,60.00,Wednesday
213,119508543.14527884
5925,119508543.1452788
2,12, 1,12, 0, 1, 0.00,60.00,Thursday
213,88645042.40863977
5925,88645042.40863974
2,12, 1,12, 0, 2, 0.00,60.00,Thursday
213,83201224.8658802
5925,83201224.86588019
2,12, 1,12, 0, 3, 0.00,60.00,Thursday
213,82526188.82100382
5925,82526188.82100382
2,12, 1,12, 0, 4, 0.00,60.00,Thursday
213,74209691.85812452
5925,74209691.85812451
2,12, 1,12, 0, 5, 0.00,60.00,Thursday
213,90241625.30793145
5925,90241625.30793144
2,12, 1,12, 0, 6, 0.00,60.00,Thursday
213,116909175.4030394
5925,116909175.4030394
2,12, 1,12, 0, 7, 0.00,60.00,Thursday
213,180760277.94614226
5925,180760277.94614226
2,12, 1,12, 0, 8, 0.00,60.00,Thursday
213,182777386.99844941
5925,182777386.9984494
2,12, 1,12, 0, 9, 0.00,60.00,Thursday
213,172197639.42808738
5925,172197639.42808735
2,12, 1,12, 0,10, 0.00,60.00,Thursday
213,147846264.4032343
5925,147846264.4032343
2,12, 1,12, 0,11, 0.00,60.00,Thursday
213,152921032.01872984
5925,152921032.0187298
2,12, 1,12, 0,12, 0.00,60.00,Thursday
213,133080920.15258713
5925,133080920.1525871
2,12, 1,12, 0,13, 0.00,60.00,Thursday
213,126897618.05264607
5925,126897618.05264607
2,12, 1,12, 0,14, 0.00,60.00,Thursday
213,115541761.20109472
5925,115541761.2010947
2,12, 1,12, 0,15, 0.00,60.00,Thursday
213,120051750.66613351
5925,120051750.66613346
2,12, 1,12, 0,16, 0.00,60.00,Thursday
213,119861018.34798172
5925,119861018.34798172
2,12, 1,12, 0,17, 0.00,60.00,Thursday
213,151438013.31460753
5925,151438013.3146075
2,12, 1,12, 0,18, 0.00,60.00,Thursday
213,190601879.1052822
5925,190601879.10528255
2,12, 1,12, 0,19, 0.00,60.00,Thursday
213,222168273.48906434
5925,222168273.48906457
2,12, 1,12, 0,20, 0.00,60.00,Thursday
213,220705000.75824037
5925,220705000.7582407
2,12, 1,12, 0,21, 0.00,60.00,Thursday
213,200875883.27854925
5925,200875883.27854955
2,12, 1,12, 0,22, 0.00,60.00,Thursday
213,182708447.11397249
5925,182708447.11397249
2,12, 1,12, 0,23, 0.00,60.00,Thursday
213,153165005.67200476
5925,153165005.67200476
2,12, 1,12, 0,24, 0.00,60.00,Thursday
213,116250384.0452729
5925,116250384.0452729
2,13, 1,13, 0, 1, 0.00,60.00,Friday
213,92275485.95348327
5925,92275485.95348325
2,13, 1,13, 0, 2, 0.00,60.00,Friday
213,80058026.03595929
5925,80058026.03595927
2,13, 1,13, 0, 3, 0.00,60.00,Friday
213,77938008.96267034
5925,77938008.96267033
2,13, 1,13, 0, 4, 0.00,60.00,Friday
213,84310221.47436805
5925,84310221.47436804
2,13, 1,13, 0, 5, 0.00,60.00,Friday
213,80276188.26118542
5925,80276188.2611854
2,13, 1,13, 0, 6, 0.00,60.00,Friday
213,115312804.48723193
5925,115312804.48723193
2,13, 1,13, 0, 7, 0.00,60.00,Friday
213,182367717.0336483
5925,182367717.0336483
2,13, 1,13, 0, 8, 0.00,60.00,Friday
213,181943074.74567723
5925,181943074.7456772
2,13, 1,13, 0, 9, 0.00,60.00,Friday
213,173354517.15031847
5925,173354517.15031847
2,13, 1,13, 0,10, 0.00,60.00,Friday
213,160009410.47221094
5925,160009410.47221094
2,13, 1,13, 0,11, 0.00,60.00,Friday
213,140051231.29270986
5925,140051231.29270986
2,13, 1,13, 0,12, 0.00,60.00,Friday
213,134093819.97602676
5925,134093819.97602676
2,13, 1,13, 0,13, 0.00,60.00,Friday
213,130719696.77129707
5925,130719696.77129707
2,13, 1,13, 0,14, 0.00,60.00,Friday
213,124456435.96608597
5925,124456435.96608596
2,13, 1,13, 0,15, 0.00,60.00,Friday
213,110429321.49603379
5925,110429321.49603377
2,13, 1,13, 0,16, 0.00,60.00,Friday
213,128195417.89397031
5925,128195417.89397033
2,13, 1,13, 0,17, 0.00,60.00,Friday
213,150968101.1991087
5925,150968101.19910866
2,13, 1,13, 0,18, 0.00,60.00,Friday
213,190497067.91303647
5925,190497067.91303676
2,13, 1,13, 0,19, 0.00,60.00,Friday
213,221176577.6118303
5925,221176577.61183062
2,13, 1,13, 0,20, 0.00,60.00,Friday
213,211785814.43088043
5925,211785814.43088076
2,13, 1,13, 0,21, 0.00,60.00,Friday
213,210646653.64281
5925,210646653.64281029
2,13, 1,13, 0,22, 0.00,60.00,Friday
213,181691750.9635923
5925,181691750.96359232
2,13, 1,13, 0,23, 0.00,60.00,Friday
213,153563526.69166094
5925,153563526.6916609
2,13, 1,13, 0,24, 0.00,60.00,Friday
213,116757958.5393948
5925,116757958.5393948
2,14, 1,14, 0, 1, 0.00,60.00,Saturday
213,83780707.97880664
5925,83780707.9788066
2,14, 1,14, 0, 2, 0.00,60.00,Saturday
213,88912277.13437426
5925,88912277.13437426
2,14, 1,14, 0, 3, 0.00,60.00,Saturday
213,77242775.52914932
5925,77242775.52914932
2,14, 1,14, 0, 4, 0.00,60.00,Saturday
213,77506312.08755268
5925,77506312.08755267
2,14, 1,14, 0, 5, 0.00,60.00,Saturday
213,89198566.15425324
5925,89198566.15425324
2,14, 1,14, 0, 6, 0.00,60.00,Saturday
213,117752632.58334723
5925,117752632.58334723
2,14, 1,14, 0, 7, 0.00,60.00,Saturday
213,179761031.8615181
5925,179761031.8615181
2,14, 1,14, 0, 8, 0.00,60.00,Saturday
213,183649459.70779186
5925,183649459.70779186
2,14, 1,14, 0, 9, 0.00,60.00,Saturday
213,167665827.53085527
5925,167665827.53085524
2,14, 1,14, 0,10, 0.00,60.00,Saturday
213,150945852.0270601
5925,150945852.0270601
2,14, 1,14, 0,11, 0.00,60.00,Saturday
213,142302638.94130355
5925,142302638.94130355
2,14, 1,14, 0,12, 0.00,60.00,Saturday
213,131936199.06241165
5925,131936199.06241164
2,14, 1,14, 0,13, 0.00,60.00,Saturday
213,124061824.00598985
5925,124061824.00598983
2,14, 1,14, 0,14, 0.00,60.00,Saturday
213,111807003.10622686
5925,111807003.10622685
2,14, 1,14, 0,15, 0.00,60.00,Saturday
213,115000657.65195954
5925,115000657.65195951
2,14, 1,14, 0,16, 0.00,60.00,Saturday
213,118543655.65048867
5925,118543655.65048867
2,14, 1,14, 0,17, 0.00,60.00,Saturday
213,145633929.3485552
5925,145633929.3485552
2,14, 1,14, 0,18, 0.00,60.00,Saturday
213,197718820.9100866
5925,197718820.91008693
2,14, 1,14, 0,19, 0.00,60.00,Saturday
213,215748693.60851026
5925,215748693.60851058
2,14, 1,14, 0,20, 0.00,60.00,Saturday
213,217507875.59581974
5925,217507875.59582007
2,14, 1,14, 0,21, 0.00,60.00,Saturday
213,204760496.11019555
5925,204760496.11019588
2,14, 1,14, 0,22, 0.00,60.00,Saturday
213,178399769.5557495
5925,178399769.55574954
2,14, 1,14, 0,23, 0.00,60.00,Saturday
213,156784460.46271777
5925,156784460.46271777
2,14, 1,14, 0,24, 0.00,60.00,Saturday
213,115506086.56279293
5925,115506086.56279291
2,15, 1,15, 0, 1, 0.00,60.00,Sunday
213,90680591.47832961
5925,90680591.47832958
2,15, 1,15, 0, 2, 0.00,60.00,Sunday
213,83729964.97981514
5925,83729964.97981513
2,15, 1,15, 0, 3, 0.00,60.00,Sunday
213,81664378.29410797
5925,81664378.29410797
2,15, 1,15, 0, 4, 0.00,60.00,Sunday
213,80170358.22090176
5925,80170358.22090173
2,15, 1,15, 0, 5, 0.00,60.00,Sunday
213,85743634.83223474
5925,85743634.83223471
2,15, 1,15, 0, 6, 0.00,60.00,Sunday
213,118052297.90416072
5925,118052297.90416072
2,15, 1,15, 0, 7, 0.00,60.00,Sunday
213,179050721.49794337
5925,179050721.49794337
2,15, 1,15, 0, 8, 0.00,60.00,Sunday
213,186773392.222399
5925,186773392.22239894
2,15, 1,15, 0, 9, 0.00,60.00,Sunday
213,165163241.33128452
5925,165163241.3312845
2,15, 1,15, 0,10, 0.00,60.00,Sunday
213,153081452.84938854
5925,153081452.8493885
2,15, 1,15, 0,11, 0.00,60.00,Sunday
213,141723345.03409272
5925,141723345.0340927
2,15, 1,15, 0,12, 0.00,60.00,Sunday
213,133603325.00977965
5925,133603325.00977966
2,15, 1,15, 0,13, 0.00,60.00,Sunday
213,117062589.12324911
5925,117062589.1232491
2,15, 1,15, 0,14, 0.00,60.00,Sunday
213,119015325.3015305
5925,119015325.3015305
2,15, 1,15, 0,15, 0.00,60.00,Sunday
213,113929676.29501131
5925,113929676.29501128
2,15, 1,15, 0,16, 0.00,60.00,Sunday
213,118389332.13312723
5925,118389332.13312723
2,15, 1,15, 0,17, 0.00,60.00,Sunday
213,150565420.69453803
5925,150565420.69453803
2,15, 1,15, 0,18, 0.00,60.00,Sunday
213,185363099.1724673
5925,185363099.1724676