Program Version,EnergyPlus, Version 26.1.0-6f2e40d102, YMD=2026.04.15 00:04
1,5,Environment Title[],Latitude[deg],Longitude[deg],Time Zone[],Elevation[m]
2,8,Day of Simulation[],Month[],Day of Month[],DST Indicator[1=yes 0=no],Hour[],StartMinute[],EndMinute[],DayType
3,5,Cumulative Day of Simulation[],Month[],Day of Month[],DST Indicator[1=yes 0=no],DayType  ! When Daily Meters Requested
4,2,Cumulative Days of Simulation[],Month[]  ! When Monthly Meters Requested
5,1,Cumulative Days of Simulation[] ! When Run Period Meters Requested
6,1,Calendar Year of Simulation[] ! When Annual Meters Requested
213,1,Electricity:Facility [J] !Hourly
5925,1,ElectricityNet:Facility [J] !Hourly
End of Data Dictionary
1,RUNPERIOD 1,  28.11, 112.79,   8.00, 120.00
2,1, 1, 1, 0, 1, 0.00,60.00,Sunday
213,95892028.24081208
5925,95892028.24081205
2,1, 1, 1, 0, 2, 0.00,60.00,Sunday
213,98823637.60426301
5925,98823637.60426302
2,1, 1, 1, 0, 3, 0.00,60.00,Sunday
213,103761136.45226116
5925,103761136.45226115
2,1, 1, 1, 0, 4, 0.00,60.00,Sunday
213,97107746.74340895
5925,97107746.74340895
2,1, 1, 1, 0, 5, 0.00,60.00,Sunday
213,107066404.11449765
5925,107066404.11449765
2,1, 1, 1, 0, 6, 0.00,60.00,Sunday
213,133750645.19995368
5925,133750645.19995369
2,1, 1, 1, 0, 7, 0.00,60.00,Sunday
213,198967124.43632984
5925,198967124.43632978
2,1, 1, 1, 0, 8, 0.00,60.00,Sunday
213,202726450.66790068
5925,202726450.66790068
2,1, 1, 1, 0, 9, 0.00,60.00,Sunday
213,182720059.5242399
5925,182720059.5242399
2,1, 1, 1, 0,10, 0.00,60.00,Sunday
213,163091706.54375377
5925,163091706.54375377
2,1, 1, 1, 0,11, 0.00,60.00,Sunday
213,163831590.76493162
5925,163831590.7649316
2,1, 1, 1, 0,12, 0.00,60.00,Sunday
213,146693604.50916266
5925,146693604.50916266
2,1, 1, 1, 0,13, 0.00,60.00,Sunday
213,135635832.07840216
5925,135635832.07840216
2,1, 1, 1, 0,14, 0.00,60.00,Sunday
213,140088606.14034998
5925,140088606.14035
2,1, 1, 1, 0,15, 0.00,60.00,Sunday
213,120655447.81941402
5925,120655447.819414
2,1, 1, 1, 0,16, 0.00,60.00,Sunday
213,146825272.8242163
5925,146825272.8242163
2,1, 1, 1, 0,17, 0.00,60.00,Sunday
213,165614656.12177795
5925,165614656.12177813
2,1, 1, 1, 0,18, 0.00,60.00,Sunday
213,206278874.233899
5925,206278874.2338993
2,1, 1, 1, 0,19, 0.00,60.00,Sunday
213,244256871.1336769
5925,244256871.1336772
2,1, 1, 1, 0,20, 0.00,60.00,Sunday
213,227830271.15566945
5925,227830271.15566975
2,1, 1, 1, 0,21, 0.00,60.00,Sunday
213,230940435.82432795
5925,230940435.82432824
2,1, 1, 1, 0,22, 0.00,60.00,Sunday
213,201770316.11405584
5925,201770316.11405608
2,1, 1, 1, 0,23, 0.00,60.00,Sunday
213,172672518.61924094
5925,172672518.61924088
2,1, 1, 1, 0,24, 0.00,60.00,Sunday
213,135527745.3604923
5925,135527745.3604923
2,2, 1, 2, 0, 1, 0.00,60.00,Holiday
213,103752923.46432167
5925,103752923.46432166
2,2, 1, 2, 0, 2, 0.00,60.00,Holiday
213,106125505.8692131
5925,106125505.8692131
2,2, 1, 2, 0, 3, 0.00,60.00,Holiday
213,97886332.7733145
5925,97886332.77331449
2,2, 1, 2, 0, 4, 0.00,60.00,Holiday
213,91864959.39459851
5925,91864959.39459851
2,2, 1, 2, 0, 5, 0.00,60.00,Holiday
213,108095909.7939838
5925,108095909.79398379
2,2, 1, 2, 0, 6, 0.00,60.00,Holiday
213,134800639.94789338
5925,134800639.94789338
2,2, 1, 2, 0, 7, 0.00,60.00,Holiday
213,200756754.32938257
5925,200756754.32938257
2,2, 1, 2, 0, 8, 0.00,60.00,Holiday
213,204819007.52746516
5925,204819007.52746522
2,2, 1, 2, 0, 9, 0.00,60.00,Holiday
213,184362520.830343
5925,184362520.830343
2,2, 1, 2, 0,10, 0.00,60.00,Holiday
213,164660250.65227133
5925,164660250.65227136
2,2, 1, 2, 0,11, 0.00,60.00,Holiday
213,165734326.28961694
5925,165734326.28961694
2,2, 1, 2, 0,12, 0.00,60.00,Holiday
213,152166116.20467877
5925,152166116.20467877
2,2, 1, 2, 0,13, 0.00,60.00,Holiday
213,143875317.706267
5925,143875317.706267
2,2, 1, 2, 0,14, 0.00,60.00,Holiday
213,128440010.12821698
5925,128440010.128217
2,2, 1, 2, 0,15, 0.00,60.00,Holiday
213,133266859.22506636
5925,133266859.22506635
2,2, 1, 2, 0,16, 0.00,60.00,Holiday
213,131916784.36031559
5925,131916784.36031558
2,2, 1, 2, 0,17, 0.00,60.00,Holiday
213,173138049.52693507
5925,173138049.52693525
2,2, 1, 2, 0,18, 0.00,60.00,Holiday
213,203413638.3198762
5925,203413638.31987655
2,2, 1, 2, 0,19, 0.00,60.00,Holiday
213,245328071.8420235
5925,245328071.84202385
2,2, 1, 2, 0,20, 0.00,60.00,Holiday
213,235516927.08530605
5925,235516927.0853064
2,2, 1, 2, 0,21, 0.00,60.00,Holiday
213,222007863.74909025
5925,222007863.74909058
2,2, 1, 2, 0,22, 0.00,60.00,Holiday
213,199453960.9691224
5925,199453960.96912268
2,2, 1, 2, 0,23, 0.00,60.00,Holiday
213,173693825.55734426
5925,173693825.55734423
2,2, 1, 2, 0,24, 0.00,60.00,Holiday
213,136604183.90408894
5925,136604183.90408894
2,3, 1, 3, 0, 1, 0.00,60.00,Tuesday
213,117962873.84791502
5925,117962873.847915
2,3, 1, 3, 0, 2, 0.00,60.00,Tuesday
213,101234410.00249575
5925,101234410.00249575
2,3, 1, 3, 0, 3, 0.00,60.00,Tuesday
213,92952634.52313891
5925,92952634.52313891
2,3, 1, 3, 0, 4, 0.00,60.00,Tuesday
213,105430741.41669141
5925,105430741.41669141
2,3, 1, 3, 0, 5, 0.00,60.00,Tuesday
213,103284333.20073657
5925,103284333.20073655
2,3, 1, 3, 0, 6, 0.00,60.00,Tuesday
213,137464914.25562474
5925,137464914.2556247
2,3, 1, 3, 0, 7, 0.00,60.00,Tuesday
213,202892721.241035
5925,202892721.24103498
2,3, 1, 3, 0, 8, 0.00,60.00,Tuesday
213,198599807.27984536
5925,198599807.27984548
2,3, 1, 3, 0, 9, 0.00,60.00,Tuesday
213,197377906.17807877
5925,197377906.17807883
2,3, 1, 3, 0,10, 0.00,60.00,Tuesday
213,175721741.61249226
5925,175721741.61249223
2,3, 1, 3, 0,11, 0.00,60.00,Tuesday
213,164979209.21188852
5925,164979209.21188855
2,3, 1, 3, 0,12, 0.00,60.00,Tuesday
213,150112236.01925665
5925,150112236.01925665
2,3, 1, 3, 0,13, 0.00,60.00,Tuesday
213,148429433.151106
5925,148429433.151106
2,3, 1, 3, 0,14, 0.00,60.00,Tuesday
213,133484281.51709056
5925,133484281.51709057
2,3, 1, 3, 0,15, 0.00,60.00,Tuesday
213,146193014.5326386
5925,146193014.5326386
2,3, 1, 3, 0,16, 0.00,60.00,Tuesday
213,151301997.283319
5925,151301997.28331903
2,3, 1, 3, 0,17, 0.00,60.00,Tuesday
213,158506830.5581973
5925,158506830.55819744
2,3, 1, 3, 0,18, 0.00,60.00,Tuesday
213,219251586.48146164
5925,219251586.48146197
2,3, 1, 3, 0,19, 0.00,60.00,Tuesday
213,232977695.7148487
5925,232977695.71484903
2,3, 1, 3, 0,20, 0.00,60.00,Tuesday
213,243847606.05222046
5925,243847606.05222082
2,3, 1, 3, 0,21, 0.00,60.00,Tuesday
213,219475847.7642831
5925,219475847.76428345
2,3, 1, 3, 0,22, 0.00,60.00,Tuesday
213,203378062.8877808
5925,203378062.88778096
2,3, 1, 3, 0,23, 0.00,60.00,Tuesday
213,174128365.02465928
5925,174128365.02465928
2,3, 1, 3, 0,24, 0.00,60.00,Tuesday
213,135555963.93736833
5925,135555963.93736833
2,4, 1, 4, 0, 1, 0.00,60.00,Wednesday
213,109984939.52812831
5925,109984939.5281283
2,4, 1, 4, 0, 2, 0.00,60.00,Wednesday
213,101385455.08276951
5925,101385455.08276951
2,4, 1, 4, 0, 3, 0.00,60.00,Wednesday
213,107604288.04274319
5925,107604288.04274319
2,4, 1, 4, 0, 4, 0.00,60.00,Wednesday
213,100809713.84043124
5925,100809713.84043124
2,4, 1, 4, 0, 5, 0.00,60.00,Wednesday
213,96693404.70162722
5925,96693404.70162721
2,4, 1, 4, 0, 6, 0.00,60.00,Wednesday
213,136882530.89946616
5925,136882530.8994662
2,4, 1, 4, 0, 7, 0.00,60.00,Wednesday
213,202168822.69979435
5925,202168822.69979435
2,4, 1, 4, 0, 8, 0.00,60.00,Wednesday
213,206458717.28210732
5925,206458717.2821074
2,4, 1, 4, 0, 9, 0.00,60.00,Wednesday
213,190236486.14823335
5925,190236486.14823347
2,4, 1, 4, 0,10, 0.00,60.00,Wednesday
213,183580026.58029097
5925,183580026.580291
2,4, 1, 4, 0,11, 0.00,60.00,Wednesday
213,156498194.94283366
5925,156498194.94283366
2,4, 1, 4, 0,12, 0.00,60.00,Wednesday
213,154491931.95789334
5925,154491931.95789334
2,4, 1, 4, 0,13, 0.00,60.00,Wednesday
213,144462268.32573405
5925,144462268.32573408
2,4, 1, 4, 0,14, 0.00,60.00,Wednesday
213,142725930.20478925
5925,142725930.20478928
2,4, 1, 4, 0,15, 0.00,60.00,Wednesday
213,123500673.53194945
5925,123500673.53194946
2,4, 1, 4, 0,16, 0.00,60.00,Wednesday
213,149061957.24413627
5925,149061957.24413624
2,4, 1, 4, 0,17, 0.00,60.00,Wednesday
213,175749585.3651274
5925,175749585.3651276
2,4, 1, 4, 0,18, 0.00,60.00,Wednesday
213,203877881.21399987
5925,203877881.2140002
2,4, 1, 4, 0,19, 0.00,60.00,Wednesday
213,244746152.4858066
5925,244746152.48580694
2,4, 1, 4, 0,20, 0.00,60.00,Wednesday
213,219691302.32667834
5925,219691302.32667863
2,4, 1, 4, 0,21, 0.00,60.00,Wednesday
213,237503140.93062156
5925,237503140.93062186
2,4, 1, 4, 0,22, 0.00,60.00,Wednesday
213,196514552.54266924
5925,196514552.5426695
2,4, 1, 4, 0,23, 0.00,60.00,Wednesday
213,158755253.14312494
5925,158755253.143125
2,4, 1, 4, 0,24, 0.00,60.00,Wednesday
213,148125978.53553653
5925,148125978.53553656
2,5, 1, 5, 0, 1, 0.00,60.00,Thursday
213,103238004.75169118
5925,103238004.75169118
2,5, 1, 5, 0, 2, 0.00,60.00,Thursday
213,112642623.82644376
5925,112642623.82644376
2,5, 1, 5, 0, 3, 0.00,60.00,Thursday
213,92106752.82776964
5925,92106752.82776967
2,5, 1, 5, 0, 4, 0.00,60.00,Thursday
213,91260233.73762429
5925,91260233.73762429
2,5, 1, 5, 0, 5, 0.00,60.00,Thursday
213,114220763.41093744
5925,114220763.41093743
2,5, 1, 5, 0, 6, 0.00,60.00,Thursday
213,135395635.21471557
5925,135395635.2147156
2,5, 1, 5, 0, 7, 0.00,60.00,Thursday
213,201694462.10622174
5925,201694462.10622177
2,5, 1, 5, 0, 8, 0.00,60.00,Thursday
213,197844756.80158204
5925,197844756.80158213
2,5, 1, 5, 0, 9, 0.00,60.00,Thursday
213,195433200.40537193
5925,195433200.40537196
2,5, 1, 5, 0,10, 0.00,60.00,Thursday
213,158038913.12047908
5925,158038913.12047908
2,5, 1, 5, 0,11, 0.00,60.00,Thursday
213,172325300.0577035
5925,172325300.0577035
2,5, 1, 5, 0,12, 0.00,60.00,Thursday
213,142574967.45761478
5925,142574967.45761478
2,5, 1, 5, 0,13, 0.00,60.00,Thursday
213,134215581.44007748
5925,134215581.44007748
2,5, 1, 5, 0,14, 0.00,60.00,Thursday
213,130423381.57245418
5925,130423381.57245418
2,5, 1, 5, 0,15, 0.00,60.00,Thursday
213,135675297.61681342
5925,135675297.61681342
2,5, 1, 5, 0,16, 0.00,60.00,Thursday
213,126882486.0921264
5925,126882486.09212638
2,5, 1, 5, 0,17, 0.00,60.00,Thursday
213,161669109.83697173
5925,161669109.83697194
2,5, 1, 5, 0,18, 0.00,60.00,Thursday
213,198051618.7623082
5925,198051618.76230854
2,5, 1, 5, 0,19, 0.00,60.00,Thursday
213,240459105.9656735
5925,240459105.96567383
2,5, 1, 5, 0,20, 0.00,60.00,Thursday
213,238112602.98136067
5925,238112602.98136103
2,5, 1, 5, 0,21, 0.00,60.00,Thursday
213,214377893.63507044
5925,214377893.63507074
2,5, 1, 5, 0,22, 0.00,60.00,Thursday
213,198751502.8579756
5925,198751502.8579758
2,5, 1, 5, 0,23, 0.00,60.00,Thursday
213,169554099.92409554
5925,169554099.92409554
2,5, 1, 5, 0,24, 0.00,60.00,Thursday
213,130800732.10705145
5925,130800732.10705145
2,6, 1, 6, 0, 1, 0.00,60.00,Friday
213,105809794.7462132
5925,105809794.7462132
2,6, 1, 6, 0, 2, 0.00,60.00,Friday
213,96148162.8350749
5925,96148162.83507492
2,6, 1, 6, 0, 3, 0.00,60.00,Friday
213,95752809.0873501
5925,95752809.0873501
2,6, 1, 6, 0, 4, 0.00,60.00,Friday
213,101375625.40263018
5925,101375625.40263014
2,6, 1, 6, 0, 5, 0.00,60.00,Friday
213,98215314.0289538
5925,98215314.0289538
2,6, 1, 6, 0, 6, 0.00,60.00,Friday
213,125759636.42760046
5925,125759636.42760046
2,6, 1, 6, 0, 7, 0.00,60.00,Friday
213,203359501.74810958
5925,203359501.74810955
2,6, 1, 6, 0, 8, 0.00,60.00,Friday
213,196203123.7855303
5925,196203123.78553033
2,6, 1, 6, 0, 9, 0.00,60.00,Friday
213,183786167.57261908
5925,183786167.57261908
2,6, 1, 6, 0,10, 0.00,60.00,Friday
213,174223854.8818658
5925,174223854.8818658
2,6, 1, 6, 0,11, 0.00,60.00,Friday
213,144762096.39134032
5925,144762096.39134035
2,6, 1, 6, 0,12, 0.00,60.00,Friday
213,142682164.36557987
5925,142682164.36557987
2,6, 1, 6, 0,13, 0.00,60.00,Friday
213,132995936.07123663
5925,132995936.07123667
2,6, 1, 6, 0,14, 0.00,60.00,Friday
213,119586217.65177198
5925,119586217.65177196
2,6, 1, 6, 0,15, 0.00,60.00,Friday
213,132619080.67244096
5925,132619080.67244096
2,6, 1, 6, 0,16, 0.00,60.00,Friday
213,133598615.35816774
5925,133598615.35816775
2,6, 1, 6, 0,17, 0.00,60.00,Friday
213,144555321.1547753
5925,144555321.1547753
2,6, 1, 6, 0,18, 0.00,60.00,Friday
213,205014165.60503137
5925,205014165.60503173
2,6, 1, 6, 0,19, 0.00,60.00,Friday
213,222342973.7563635
5925,222342973.75636387
2,6, 1, 6, 0,20, 0.00,60.00,Friday
213,232539512.2404455
5925,232539512.2404459
2,6, 1, 6, 0,21, 0.00,60.00,Friday
213,212614053.7243138
5925,212614053.7243141
2,6, 1, 6, 0,22, 0.00,60.00,Friday
213,189004356.6507868
5925,189004356.65078697
2,6, 1, 6, 0,23, 0.00,60.00,Friday
213,175831082.46902215
5925,175831082.46902218
2,6, 1, 6, 0,24, 0.00,60.00,Friday
213,131116156.90190001
5925,131116156.9019
2,7, 1, 7, 0, 1, 0.00,60.00,Saturday
213,107240497.05821687
5925,107240497.05821687
2,7, 1, 7, 0, 2, 0.00,60.00,Saturday
213,99969363.8111789
5925,99969363.8111789
2,7, 1, 7, 0, 3, 0.00,60.00,Saturday
213,105338177.8651349
5925,105338177.8651349
2,7, 1, 7, 0, 4, 0.00,60.00,Saturday
213,98818529.79031698
5925,98818529.79031697
2,7, 1, 7, 0, 5, 0.00,60.00,Saturday
213,95963844.0473583
5925,95963844.0473583
2,7, 1, 7, 0, 6, 0.00,60.00,Saturday
213,146027528.05509022
5925,146027528.05509022
2,7, 1, 7, 0, 7, 0.00,60.00,Saturday
213,192083040.77141052
5925,192083040.77141052
2,7, 1, 7, 0, 8, 0.00,60.00,Saturday
213,211131713.4488054
5925,211131713.44880545
2,7, 1, 7, 0, 9, 0.00,60.00,Saturday
213,178326368.71453208
5925,178326368.71453208
2,7, 1, 7, 0,10, 0.00,60.00,Saturday
213,174612722.22460967
5925,174612722.22460964
2,7, 1, 7, 0,11, 0.00,60.00,Saturday
213,147735609.04501218
5925,147735609.04501218
2,7, 1, 7, 0,12, 0.00,60.00,Saturday
213,145929615.99971247
5925,145929615.99971244
2,7, 1, 7, 0,13, 0.00,60.00,Saturday
213,125673815.2490691
5925,125673815.2490691
2,7, 1, 7, 0,14, 0.00,60.00,Saturday
213,128942740.53843807
5925,128942740.53843805
2,7, 1, 7, 0,15, 0.00,60.00,Saturday
213,106639368.2775262
5925,106639368.2775262
2,7, 1, 7, 0,16, 0.00,60.00,Saturday
213,132266257.09277934
5925,132266257.09277934
2,7, 1, 7, 0,17, 0.00,60.00,Saturday
213,161423558.75335535
5925,161423558.75335538
2,7, 1, 7, 0,18, 0.00,60.00,Saturday
213,195385106.72209427
5925,195385106.72209463
2,7, 1, 7, 0,19, 0.00,60.00,Saturday
213,238246813.2948289
5925,238246813.2948292
2,7, 1, 7, 0,20, 0.00,60.00,Saturday
213,216005034.59919596
5925,216005034.59919634
2,7, 1, 7, 0,21, 0.00,60.00,Saturday
213,232733327.30374542
5925,232733327.30374572
2,7, 1, 7, 0,22, 0.00,60.00,Saturday
213,190926170.0986009
5925,190926170.09860107
2,7, 1, 7, 0,23, 0.00,60.00,Saturday
213,169533482.5371958
5925,169533482.53719577
2,7, 1, 7, 0,24, 0.00,60.00,Saturday
213,131640070.16105962
5925,131640070.1610596
2,8, 1, 8, 0, 1, 0.00,60.00,Sunday
213,100568856.19011047
5925,100568856.19011047
2,8, 1, 8, 0, 2, 0.00,60.00,Sunday
213,111897853.83756569
5925,111897853.83756569
2,8, 1, 8, 0, 3, 0.00,60.00,Sunday
213,91414231.93911815
5925,91414231.93911815
2,8, 1, 8, 0, 4, 0.00,60.00,Sunday
213,91266655.21179798
5925,91266655.21179797
2,8, 1, 8, 0, 5, 0.00,60.00,Sunday
213,115460777.71918675
5925,115460777.71918675
2,8, 1, 8, 0, 6, 0.00,60.00,Sunday
213,135390980.610368
5925,135390980.610368
2,8, 1, 8, 0, 7, 0.00,60.00,Sunday
213,201414872.65842652
5925,201414872.65842652
2,8, 1, 8, 0, 8, 0.00,60.00,Sunday
213,201385311.61853218
5925,201385311.61853224
2,8, 1, 8, 0, 9, 0.00,60.00,Sunday
213,187570844.07111079
5925,187570844.07111076
2,8, 1, 8, 0,10, 0.00,60.00,Sunday
213,168038265.90624034
5925,168038265.90624034
2,8, 1, 8, 0,11, 0.00,60.00,Sunday
213,147452469.40950146
5925,147452469.40950146
2,8, 1, 8, 0,12, 0.00,60.00,Sunday
213,136390473.9685048
5925,136390473.9685048
2,8, 1, 8, 0,13, 0.00,60.00,Sunday
213,131979594.1329031
5925,131979594.1329031
2,8, 1, 8, 0,14, 0.00,60.00,Sunday
213,113817470.48794322
5925,113817470.4879432
2,8, 1, 8, 0,15, 0.00,60.00,Sunday
213,119928531.14832178
5925,119928531.14832179
2,8, 1, 8, 0,16, 0.00,60.00,Sunday
213,120125850.32952194
5925,120125850.32952191
2,8, 1, 8, 0,17, 0.00,60.00,Sunday
213,149146423.72187695
5925,149146423.72187695
2,8, 1, 8, 0,18, 0.00,60.00,Sunday
213,207154433.91715553
5925,207154433.91715592
2,8, 1, 8, 0,19, 0.00,60.00,Sunday
213,218688230.02672243
5925,218688230.02672276
2,8, 1, 8, 0,20, 0.00,60.00,Sunday
213,233237489.1095281
5925,233237489.1095284
2,8, 1, 8, 0,21, 0.00,60.00,Sunday
213,210452985.6867639
5925,210452985.68676427
2,8, 1, 8, 0,22, 0.00,60.00,Sunday
213,195858059.54552197
5925,195858059.54552218
2,8, 1, 8, 0,23, 0.00,60.00,Sunday
213,167622051.00518823
5925,167622051.00518826
2,8, 1, 8, 0,24, 0.00,60.00,Sunday
213,129935755.78760302
5925,129935755.78760304
2,9, 1, 9, 0, 1, 0.00,60.00,Monday
213,112310073.2788952
5925,112310073.27889517
2,9, 1, 9, 0, 2, 0.00,60.00,Monday
213,91411086.68634187
5925,91411086.68634187
2,9, 1, 9, 0, 3, 0.00,60.00,Monday
213,107427280.98441194
5925,107427280.98441194
2,9, 1, 9, 0, 4, 0.00,60.00,Monday
213,93687609.24524531
5925,93687609.24524531
2,9, 1, 9, 0, 5, 0.00,60.00,Monday
213,102228940.40652488
5925,102228940.40652487
2,9, 1, 9, 0, 6, 0.00,60.00,Monday
213,135378216.1683627
5925,135378216.1683627
2,9, 1, 9, 0, 7, 0.00,60.00,Monday
213,202967401.65062016
5925,202967401.65062016
2,9, 1, 9, 0, 8, 0.00,60.00,Monday
213,199639642.20166764
5925,199639642.20166776
2,9, 1, 9, 0, 9, 0.00,60.00,Monday
213,195686268.49692306
5925,195686268.49692312
2,9, 1, 9, 0,10, 0.00,60.00,Monday
213,170076367.06035474
5925,170076367.0603547
2,9, 1, 9, 0,11, 0.00,60.00,Monday
213,154023329.36438867
5925,154023329.3643887
2,9, 1, 9, 0,12, 0.00,60.00,Monday
213,134523338.2945692
5925,134523338.29456916
2,9, 1, 9, 0,13, 0.00,60.00,Monday
213,140608219.81288615
5925,140608219.81288618
2,9, 1, 9, 0,14, 0.00,60.00,Monday
213,133304131.49767266
5925,133304131.49767265
2,9, 1, 9, 0,15, 0.00,60.00,Monday
213,121765101.7973024
5925,121765101.79730237
2,9, 1, 9, 0,16, 0.00,60.00,Monday
213,142190968.3076087
5925,142190968.30760866
2,9, 1, 9, 0,17, 0.00,60.00,Monday
213,153053726.22097075
5925,153053726.22097072
2,9, 1, 9, 0,18, 0.00,60.00,Monday
213,194246389.62226826
5925,194246389.62226862
2,9, 1, 9, 0,19, 0.00,60.00,Monday
213,228066474.46237886
5925,228066474.4623792
2,9, 1, 9, 0,20, 0.00,60.00,Monday
213,221348004.2758514
5925,221348004.27585173
2,9, 1, 9, 0,21, 0.00,60.00,Monday
213,219329957.55332315
5925,219329957.55332342
2,9, 1, 9, 0,22, 0.00,60.00,Monday
213,194759510.63925123
5925,194759510.63925144
2,9, 1, 9, 0,23, 0.00,60.00,Monday
213,165943479.09803858
5925,165943479.09803858
2,9, 1, 9, 0,24, 0.00,60.00,Monday
213,130360260.56219572
5925,130360260.56219573
2,10, 1,10, 0, 1, 0.00,60.00,Tuesday
213,104100660.41562578
5925,104100660.41562578
2,10, 1,10, 0, 2, 0.00,60.00,Tuesday
213,101075174.81159614
5925,101075174.81159616
2,10, 1,10, 0, 3, 0.00,60.00,Tuesday
213,100411151.98062226
5925,100411151.98062229
2,10, 1,10, 0, 4, 0.00,60.00,Tuesday
213,91008614.47526647
5925,91008614.47526646
2,10, 1,10, 0, 5, 0.00,60.00,Tuesday
213,112664325.81016102
5925,112664325.81016102
2,10, 1,10, 0, 6, 0.00,60.00,Tuesday
213,133845544.95788321
5925,133845544.95788321
2,10, 1,10, 0, 7, 0.00,60.00,Tuesday
213,204251398.09666467
5925,204251398.09666467
2,10, 1,10, 0, 8, 0.00,60.00,Tuesday
213,200395749.03398454
5925,200395749.03398472
2,10, 1,10, 0, 9, 0.00,60.00,Tuesday
213,191935339.5691565
5925,191935339.56915656
2,10, 1,10, 0,10, 0.00,60.00,Tuesday
213,166249199.64698446
5925,166249199.6469845
2,10, 1,10, 0,11, 0.00,60.00,Tuesday
213,158674190.14644116
5925,158674190.1464412
2,10, 1,10, 0,12, 0.00,60.00,Tuesday
213,136303147.26615745
5925,136303147.26615745
2,10, 1,10, 0,13, 0.00,60.00,Tuesday
213,134632945.99507713
5925,134632945.99507713
2,10, 1,10, 0,14, 0.00,60.00,Tuesday
213,122951893.60138617
5925,122951893.60138616
2,10, 1,10, 0,15, 0.00,60.00,Tuesday
213,132657731.4021458
5925,132657731.4021458
2,10, 1,10, 0,16, 0.00,60.00,Tuesday
213,132524929.06585228
5925,132524929.06585228
2,10, 1,10, 0,17, 0.00,60.00,Tuesday
213,149976190.27883953
5925,149976190.27883953
2,10, 1,10, 0,18, 0.00,60.00,Tuesday
213,197312689.71038812
5925,197312689.71038845
2,10, 1,10, 0,19, 0.00,60.00,Tuesday
213,219253653.4601378
5925,219253653.46013817
2,10, 1,10, 0,20, 0.00,60.00,Tuesday
213,224912552.29512954
5925,224912552.2951299
2,10, 1,10, 0,21, 0.00,60.00,Tuesday
213,208665763.09452513
5925,208665763.0945254
2,10, 1,10, 0,22, 0.00,60.00,Tuesday
213,190366563.11288118
5925,190366563.1128814
2,10, 1,10, 0,23, 0.00,60.00,Tuesday
213,163431087.4908735
5925,163431087.4908735
2,10, 1,10, 0,24, 0.00,60.00,Tuesday
213,123993367.71088807
5925,123993367.71088809
2,11, 1,11, 0, 1, 0.00,60.00,Wednesday
213,98752583.65819448
5925,98752583.65819445
2,11, 1,11, 0, 2, 0.00,60.00,Wednesday
213,90549625.31672111
5925,90549625.3167211
2,11, 1,11, 0, 3, 0.00,60.00,Wednesday
213,96005950.69185235
5925,96005950.69185236
2,11, 1,11, 0, 4, 0.00,60.00,Wednesday
213,90692180.00640336
5925,90692180.00640333
2,11, 1,11, 0, 5, 0.00,60.00,Wednesday
213,90776540.92565404
5925,90776540.92565404
2,11, 1,11, 0, 6, 0.00,60.00,Wednesday
213,133798942.51933326
5925,133798942.51933324
2,11, 1,11, 0, 7, 0.00,60.00,Wednesday
213,187182948.8876413
5925,187182948.8876413
2,11, 1,11, 0, 8, 0.00,60.00,Wednesday
213,195916722.62566692
5925,195916722.62566692
2,11, 1,11, 0, 9, 0.00,60.00,Wednesday
213,182611968.60363185
5925,182611968.60363185
2,11, 1,11, 0,10, 0.00,60.00,Wednesday
213,171172227.0552907
5925,171172227.0552907
2,11, 1,11, 0,11, 0.00,60.00,Wednesday
213,155596882.43598673
5925,155596882.43598673
2,11, 1,11, 0,12, 0.00,60.00,Wednesday
213,147186454.17335257
5925,147186454.17335257
2,11, 1,11, 0,13, 0.00,60.00,Wednesday
213,137576471.43971452
5925,137576471.43971455
2,11, 1,11, 0,14, 0.00,60.00,Wednesday
213,129651817.37672116
5925,129651817.37672117
2,11, 1,11, 0,15, 0.00,60.00,Wednesday
213,129207484.50147644
5925,129207484.50147644
2,11, 1,11, 0,16, 0.00,60.00,Wednesday
213,143809326.6261136
5925,143809326.62611356
2,11, 1,11, 0,17, 0.00,60.00,Wednesday
213,162534209.2721225
5925,162534209.2721227
2,11, 1,11, 0,18, 0.00,60.00,Wednesday
213,203831042.0184152
5925,203831042.01841557
2,11, 1,11, 0,19, 0.00,60.00,Wednesday
213,236925398.15456444
5925,236925398.15456477
2,11, 1,11, 0,20, 0.00,60.00,Wednesday
213,234139140.75881872
5925,234139140.758819
2,11, 1,11, 0,21, 0.00,60.00,Wednesday
213,218322552.98781157
5925,218322552.98781192
2,11, 1,11, 0,22, 0.00,60.00,Wednesday
213,196762887.722997
5925,196762887.7229972
2,11, 1,11, 0,23, 0.00,60.00,Wednesday
213,171617885.52396557
5925,171617885.52396554
2,11, 1,11, 0,24, 0.00,60.00,Wednesday
213,132151341.96738273
5925,132151341.96738276
2,12, 1,12, 0, 1, 0.00,60.00,Thursday
213,100933226.53211534
5925,100933226.53211533
2,12, 1,12, 0, 2, 0.00,60.00,Thursday
213,104786485.91223115
5925,104786485.91223115
2,12, 1,12, 0, 3, 0.00,60.00,Thursday
213,97574846.57198627
5925,97574846.57198626
2,12, 1,12, 0, 4, 0.00,60.00,Thursday
213,100400039.50125277
5925,100400039.50125276
2,12, 1,12, 0, 5, 0.00,60.00,Thursday
213,103367469.34428096
5925,103367469.34428093
2,12, 1,12, 0, 6, 0.00,60.00,Thursday
213,135088525.38668838
5925,135088525.38668838
2,12, 1,12, 0, 7, 0.00,60.00,Thursday
213,200781038.85111392
5925,200781038.85111392
2,12, 1,12, 0, 8, 0.00,60.00,Thursday
213,200755775.1914909
5925,200755775.19149095
2,12, 1,12, 0, 9, 0.00,60.00,Thursday
213,192994785.47412947
5925,192994785.4741295
2,12, 1,12, 0,10, 0.00,60.00,Thursday
213,172721308.34310704
5925,172721308.34310704
2,12, 1,12, 0,11, 0.00,60.00,Thursday
213,161900775.1104104
5925,161900775.1104104
2,12, 1,12, 0,12, 0.00,60.00,Thursday
213,150409558.3055338
5925,150409558.30553383
2,12, 1,12, 0,13, 0.00,60.00,Thursday
213,144619590.33679724
5925,144619590.33679724
2,12, 1,12, 0,14, 0.00,60.00,Thursday
213,136899070.28999633
5925,136899070.28999633
2,12, 1,12, 0,15, 0.00,60.00,Thursday
213,132933477.71473911
5925,132933477.71473911
2,12, 1,12, 0,16, 0.00,60.00,Thursday
213,142311598.02730626
5925,142311598.02730626
2,12, 1,12, 0,17, 0.00,60.00,Thursday
213,166646793.0575624
5925,166646793.0575626
2,12, 1,12, 0,18, 0.00,60.00,Thursday
213,210846361.50744563
5925,210846361.5074459
2,12, 1,12, 0,19, 0.00,60.00,Thursday
213,236746764.49006945
5925,236746764.4900698
2,12, 1,12, 0,20, 0.00,60.00,Thursday
213,233217419.88956708
5925,233217419.8895674
2,12, 1,12, 0,21, 0.00,60.00,Thursday
213,223718241.2357009
5925,223718241.23570123
2,12, 1,12, 0,22, 0.00,60.00,Thursday
213,200511735.41453904
5925,200511735.41453928
2,12, 1,12, 0,23, 0.00,60.00,Thursday
213,165655014.6897708
5925,165655014.6897708
2,12, 1,12, 0,24, 0.00,60.00,Thursday
213,140090838.5583147
5925,140090838.5583147
2,13, 1,13, 0, 1, 0.00,60.00,Friday
213,106431001.50885911
5925,106431001.50885911
2,13, 1,13, 0, 2, 0.00,60.00,Friday
213,99091970.99043247
5925,99091970.99043247
2,13, 1,13, 0, 3, 0.00,60.00,Friday
213,103601458.85363355
5925,103601458.85363355
2,13, 1,13, 0, 4, 0.00,60.00,Friday
213,99408157.86741821
5925,99408157.86741821
2,13, 1,13, 0, 5, 0.00,60.00,Friday
213,105512837.3951986
5925,105512837.3951986
2,13, 1,13, 0, 6, 0.00,60.00,Friday
213,138792047.88999346
5925,138792047.88999346
2,13, 1,13, 0, 7, 0.00,60.00,Friday
213,199060284.67070872
5925,199060284.67070872
2,13, 1,13, 0, 8, 0.00,60.00,Friday
213,203439351.56686628
5925,203439351.5668664
2,13, 1,13, 0, 9, 0.00,60.00,Friday
213,191348569.11268413
5925,191348569.1126842
2,13, 1,13, 0,10, 0.00,60.00,Friday
213,173422974.8447782
5925,173422974.84477818
2,13, 1,13, 0,11, 0.00,60.00,Friday
213,164833608.95183015
5925,164833608.95183012
2,13, 1,13, 0,12, 0.00,60.00,Friday
213,152755597.66896763
5925,152755597.66896766
2,13, 1,13, 0,13, 0.00,60.00,Friday
213,141122024.88710615
5925,141122024.88710615
2,13, 1,13, 0,14, 0.00,60.00,Friday
213,136356272.9268801
5925,136356272.9268801
2,13, 1,13, 0,15, 0.00,60.00,Friday
213,133267963.93537423
5925,133267963.93537426
2,13, 1,13, 0,16, 0.00,60.00,Friday
213,139285684.2749405
5925,139285684.27494046
2,13, 1,13, 0,17, 0.00,60.00,Friday
213,168266957.76492465
5925,168266957.76492482
2,13, 1,13, 0,18, 0.00,60.00,Friday
213,208267758.02183834
5925,208267758.02183867
2,13, 1,13, 0,19, 0.00,60.00,Friday
213,240305936.8606012
5925,240305936.8606015
2,13, 1,13, 0,20, 0.00,60.00,Friday
213,234295620.33793074
5925,234295620.33793104
2,13, 1,13, 0,21, 0.00,60.00,Friday
213,223902960.58102018
5925,223902960.5810205
2,13, 1,13, 0,22, 0.00,60.00,Friday
213,199850121.6371204
5925,199850121.6371206
2,13, 1,13, 0,23, 0.00,60.00,Friday
213,171232832.64517424
5925,171232832.6451742
2,13, 1,13, 0,24, 0.00,60.00,Friday
213,134474832.53308287
5925,134474832.53308287
2,14, 1,14, 0, 1, 0.00,60.00,Saturday
213,111371790.64385508
5925,111371790.64385508
2,14, 1,14, 0, 2, 0.00,60.00,Saturday
213,101379109.99451265
5925,101379109.99451266
2,14, 1,14, 0, 3, 0.00,60.00,Saturday
213,93474861.207046
5925,93474861.207046
2,14, 1,14, 0, 4, 0.00,60.00,Saturday
213,105829622.45316961
5925,105829622.45316961
2,14, 1,14, 0, 5, 0.00,60.00,Saturday
213,102625631.63395338
5925,102625631.63395335
2,14, 1,14, 0, 6, 0.00,60.00,Saturday
213,136540658.2392974
5925,136540658.23929742
2,14, 1,14, 0, 7, 0.00,60.00,Saturday
213,201949555.5660667
5925,201949555.5660667
2,14, 1,14, 0, 8, 0.00,60.00,Saturday
213,204744987.55080515
5925,204744987.55080533
2,14, 1,14, 0, 9, 0.00,60.00,Saturday
213,185434935.5970301
5925,185434935.5970301
2,14, 1,14, 0,10, 0.00,60.00,Saturday
213,174624495.58708432
5925,174624495.5870843
2,14, 1,14, 0,11, 0.00,60.00,Saturday
213,153653153.88823026
5925,153653153.8882303
2,14, 1,14, 0,12, 0.00,60.00,Saturday
213,151427262.56599715
5925,151427262.56599715
2,14, 1,14, 0,13, 0.00,60.00,Saturday
213,142641155.34588873
5925,142641155.34588873
2,14, 1,14, 0,14, 0.00,60.00,Saturday
213,135070596.91623014
5925,135070596.91623014
2,14, 1,14, 0,15, 0.00,60.00,Saturday
213,126739582.23172253
5925,126739582.23172253
2,14, 1,14, 0,16, 0.00,60.00,Saturday
213,141986284.63504726
5925,141986284.63504726
2,14, 1,14, 0,17, 0.00,60.00,Saturday
213,168667649.43289733
5925,168667649.43289754
2,14, 1,14, 0,18, 0.00,60.00,Saturday
213,207867886.22182438
5925,207867886.2218247
2,14, 1,14, 0,19, 0.00,60.00,Saturday
213,242032029.31633714
5925,242032029.31633747
2,14, 1,14, 0,20, 0.00,60.00,Saturday
213,228123411.47637445
5925,228123411.47637475
2,14, 1,14, 0,21, 0.00,60.00,Saturday
213,232321124.14438155
5925,232321124.14438188
2,14, 1,14, 0,22, 0.00,60.00,Saturday
213,198676680.51857466
5925,198676680.5185749
2,14, 1,14, 0,23, 0.00,60.00,Saturday
213,173336472.35176134
5925,173336472.35176137
2,14, 1,14, 0,24, 0.00,60.00,Saturday
213,132772711.18953317
5925,132772711.18953316
2,15, 1,15, 0, 1, 0.00,60.00,Sunday
213,105714910.30485192
5925,105714910.30485192
2,15, 1,15, 0, 2, 0.00,60.00,Sunday
213,105720652.40047361
5925,105720652.4004736
2,15, 1,15, 0, 3, 0.00,60.00,Sunday
213,99656988.51613513
5925,99656988.51613513
2,15, 1,15, 0, 4, 0.00,60.00,Sunday
213,95468682.17002374
5925,95468682.17002371
2,15, 1,15, 0, 5, 0.00,60.00,Sunday
213,107026989.40863666
5925,107026989.40863667
2,15, 1,15, 0, 6, 0.00,60.00,Sunday
213,134573500.05283043
5925,134573500.05283043
2,15, 1,15, 0, 7, 0.00,60.00,Sunday
213,200327691.09556907
5925,200327691.09556907
2,15, 1,15, 0, 8, 0.00,60.00,Sunday
213,202538537.3999473
5925,202538537.3999474
2,15, 1,15, 0, 9, 0.00,60.00,Sunday
213,185437417.23382574
5925,185437417.23382577
2,15, 1,15, 0,10, 0.00,60.00,Sunday
213,176631131.1312565
5925,176631131.1312565
2,15, 1,15, 0,11, 0.00,60.00,Sunday
213,161918553.57721934
5925,161918553.5772193
2,15, 1,15, 0,12, 0.00,60.00,Sunday
213,148730512.76125282
5925,148730512.76125282
2,15, 1,15, 0,13, 0.00,60.00,Sunday
213,139565939.05399278
5925,139565939.05399278
2,15, 1,15, 0,14, 0.00,60.00,Sunday
213,131257224.73585626
5925,131257224.73585625
2,15, 1,15, 0,15, 0.00,60.00,Sunday
213,136767911.2757157
5925,136767911.27571568
2,15, 1,15, 0,16, 0.00,60.00,Sunday
213,139726403.96596712
5925,139726403.96596715
2,15, 1,15, 0,17, 0.00,60.00,Sunday
213,163504747.18991995
5925,163504747.1899201