Program Version,EnergyPlus, Version 26.1.0-6f2e40d102, YMD=2026.04.15 00:23
1,5,Environment Title[],Latitude[deg],Longitude[deg],Time Zone[],Elevation[m]
2,8,Day of Simulation[],Month[],Day of Month[],DST Indicator[1=yes 0=no],Hour[],StartMinute[],EndMinute[],DayType
3,5,Cumulative Day of Simulation[],Month[],Day of Month[],DST Indicator[1=yes 0=no],DayType  ! When Daily Meters Requested
4,2,Cumulative Days of Simulation[],Month[]  ! When Monthly Meters Requested
5,1,Cumulative Days of Simulation[] ! When Run Period Meters Requested
6,1,Calendar Year of Simulation[] ! When Annual Meters Requested
213,1,Electricity:Facility [J] !Hourly
6085,1,ElectricityNet:Facility [J] !Hourly
End of Data Dictionary
1,RUNPERIOD 1,  28.11, 112.79,   8.00, 120.00
2,1, 1, 1, 0, 1, 0.00,60.00,Holiday
213,262985594.16884834
6085,262985594.1688483
2,1, 1, 1, 0, 2, 0.00,60.00,Holiday
213,250918505.9750137
6085,250918505.9750136
2,1, 1, 1, 0, 3, 0.00,60.00,Holiday
213,249722751.59795457
6085,249722751.59795445
2,1, 1, 1, 0, 4, 0.00,60.00,Holiday
213,249215678.10662317
6085,249215678.10662305
2,1, 1, 1, 0, 5, 0.00,60.00,Holiday
213,252230204.54383302
6085,252230204.54383287
2,1, 1, 1, 0, 6, 0.00,60.00,Holiday
213,267548838.1096381
6085,267548838.10963795
2,1, 1, 1, 0, 7, 0.00,60.00,Holiday
213,288257254.9741428
6085,288257254.97414255
2,1, 1, 1, 0, 8, 0.00,60.00,Holiday
213,285078465.53002864
6085,285078465.53002846
2,1, 1, 1, 0, 9, 0.00,60.00,Holiday
213,276727704.27174896
6085,276727704.2717488
2,1, 1, 1, 0,10, 0.00,60.00,Holiday
213,271029420.7981199
6085,271029420.79811966
2,1, 1, 1, 0,11, 0.00,60.00,Holiday
213,259303204.1625461
6085,259303204.16254592
2,1, 1, 1, 0,12, 0.00,60.00,Holiday
213,272105913.7432427
6085,272105913.74324256
2,1, 1, 1, 0,13, 0.00,60.00,Holiday
213,272000807.85431486
6085,272000807.8543147
2,1, 1, 1, 0,14, 0.00,60.00,Holiday
213,261548379.23085806
6085,261548379.2308579
2,1, 1, 1, 0,15, 0.00,60.00,Holiday
213,269944325.6115123
6085,269944325.6115121
2,1, 1, 1, 0,16, 0.00,60.00,Holiday
213,282845859.46712726
6085,282845859.4671271
2,1, 1, 1, 0,17, 0.00,60.00,Holiday
213,303449405.6288669
6085,303449405.6288671
2,1, 1, 1, 0,18, 0.00,60.00,Holiday
213,357662355.5816059
6085,357662355.5816063
2,1, 1, 1, 0,19, 0.00,60.00,Holiday
213,373195073.20535594
6085,373195073.20535636
2,1, 1, 1, 0,20, 0.00,60.00,Holiday
213,360274136.58371174
6085,360274136.5837121
2,1, 1, 1, 0,21, 0.00,60.00,Holiday
213,355074036.0870709
6085,355074036.08707136
2,1, 1, 1, 0,22, 0.00,60.00,Holiday
213,336633257.6281568
6085,336633257.6281569
2,1, 1, 1, 0,23, 0.00,60.00,Holiday
213,304749940.4719165
6085,304749940.47191626
2,1, 1, 1, 0,24, 0.00,60.00,Holiday
213,285586702.2041472
6085,285586702.20414704
2,2, 1, 2, 0, 1, 0.00,60.00,Monday
213,268273885.4398022
6085,268273885.4398022
2,2, 1, 2, 0, 2, 0.00,60.00,Monday
213,258663917.9143743
6085,258663917.91437414
2,2, 1, 2, 0, 3, 0.00,60.00,Monday
213,255828352.8979938
6085,255828352.89799362
2,2, 1, 2, 0, 4, 0.00,60.00,Monday
213,255216867.61886704
6085,255216867.61886698
2,2, 1, 2, 0, 5, 0.00,60.00,Monday
213,258694090.0624751
6085,258694090.06247497
2,2, 1, 2, 0, 6, 0.00,60.00,Monday
213,274303901.4654575
6085,274303901.4654573
2,2, 1, 2, 0, 7, 0.00,60.00,Monday
213,299716404.9222432
6085,299716404.922243
2,2, 1, 2, 0, 8, 0.00,60.00,Monday
213,298609917.91476434
6085,298609917.91476417
2,2, 1, 2, 0, 9, 0.00,60.00,Monday
213,296369977.44456476
6085,296369977.44456446
2,2, 1, 2, 0,10, 0.00,60.00,Monday
213,290651383.2244413
6085,290651383.2244411
2,2, 1, 2, 0,11, 0.00,60.00,Monday
213,281557938.57286465
6085,281557938.5728645
2,2, 1, 2, 0,12, 0.00,60.00,Monday
213,283840152.14960206
6085,283840152.1496018
2,2, 1, 2, 0,13, 0.00,60.00,Monday
213,281463458.4953113
6085,281463458.49531114
2,2, 1, 2, 0,14, 0.00,60.00,Monday
213,280069543.05941516
6085,280069543.0594149
2,2, 1, 2, 0,15, 0.00,60.00,Monday
213,275190001.18852
6085,275190001.1885198
2,2, 1, 2, 0,16, 0.00,60.00,Monday
213,280793067.37962294
6085,280793067.37962276
2,2, 1, 2, 0,17, 0.00,60.00,Monday
213,315012406.64768845
6085,315012406.6476886
2,2, 1, 2, 0,18, 0.00,60.00,Monday
213,362567389.9931811
6085,362567389.99318147
2,2, 1, 2, 0,19, 0.00,60.00,Monday
213,381111922.97509
6085,381111922.9750904
2,2, 1, 2, 0,20, 0.00,60.00,Monday
213,371972049.99210846
6085,371972049.992109
2,2, 1, 2, 0,21, 0.00,60.00,Monday
213,364655719.06639415
6085,364655719.06639457
2,2, 1, 2, 0,22, 0.00,60.00,Monday
213,344149157.59811306
6085,344149157.59811324
2,2, 1, 2, 0,23, 0.00,60.00,Monday
213,312653494.1980368
6085,312653494.1980366
2,2, 1, 2, 0,24, 0.00,60.00,Monday
213,293509301.20598966
6085,293509301.20598936
2,3, 1, 3, 0, 1, 0.00,60.00,Tuesday
213,276395272.48210144
6085,276395272.4821014
2,3, 1, 3, 0, 2, 0.00,60.00,Tuesday
213,267728133.3061441
6085,267728133.30614397
2,3, 1, 3, 0, 3, 0.00,60.00,Tuesday
213,265573714.46221668
6085,265573714.46221653
2,3, 1, 3, 0, 4, 0.00,60.00,Tuesday
213,264835911.16340613
6085,264835911.163406
2,3, 1, 3, 0, 5, 0.00,60.00,Tuesday
213,268309013.74880296
6085,268309013.74880287
2,3, 1, 3, 0, 6, 0.00,60.00,Tuesday
213,289865422.0381529
6085,289865422.0381527
2,3, 1, 3, 0, 7, 0.00,60.00,Tuesday
213,312527758.57343036
6085,312527758.5734301
2,3, 1, 3, 0, 8, 0.00,60.00,Tuesday
213,307147684.01587313
6085,307147684.0158729
2,3, 1, 3, 0, 9, 0.00,60.00,Tuesday
213,304851027.14648026
6085,304851027.1464801
2,3, 1, 3, 0,10, 0.00,60.00,Tuesday
213,296675498.36869687
6085,296675498.3686967
2,3, 1, 3, 0,11, 0.00,60.00,Tuesday
213,288742746.9231214
6085,288742746.9231212
2,3, 1, 3, 0,12, 0.00,60.00,Tuesday
213,291235025.4351322
6085,291235025.435132
2,3, 1, 3, 0,13, 0.00,60.00,Tuesday
213,286951404.5738009
6085,286951404.5738008
2,3, 1, 3, 0,14, 0.00,60.00,Tuesday
213,285366234.9098337
6085,285366234.90983355
2,3, 1, 3, 0,15, 0.00,60.00,Tuesday
213,284428820.715775
6085,284428820.7157748
2,3, 1, 3, 0,16, 0.00,60.00,Tuesday
213,292794898.2472833
6085,292794898.2472831
2,3, 1, 3, 0,17, 0.00,60.00,Tuesday
213,327201499.0905975
6085,327201499.0905976
2,3, 1, 3, 0,18, 0.00,60.00,Tuesday
213,374646811.378377
6085,374646811.3783775
2,3, 1, 3, 0,19, 0.00,60.00,Tuesday
213,389507397.8317383
6085,389507397.83173865
2,3, 1, 3, 0,20, 0.00,60.00,Tuesday
213,377410671.32144415
6085,377410671.32144463
2,3, 1, 3, 0,21, 0.00,60.00,Tuesday
213,370073256.9695877
6085,370073256.96958816
2,3, 1, 3, 0,22, 0.00,60.00,Tuesday
213,348531923.2053183
6085,348531923.2053183
2,3, 1, 3, 0,23, 0.00,60.00,Tuesday
213,315278251.96035874
6085,315278251.9603585
2,3, 1, 3, 0,24, 0.00,60.00,Tuesday
213,289227594.581645
6085,289227594.5816448
2,4, 1, 4, 0, 1, 0.00,60.00,Wednesday
213,272066715.7122491
6085,272066715.71224904
2,4, 1, 4, 0, 2, 0.00,60.00,Wednesday
213,268381911.95135587
6085,268381911.9513558
2,4, 1, 4, 0, 3, 0.00,60.00,Wednesday
213,272881252.30152315
6085,272881252.30152315
2,4, 1, 4, 0, 4, 0.00,60.00,Wednesday
213,272149705.355926
6085,272149705.35592586
2,4, 1, 4, 0, 5, 0.00,60.00,Wednesday
213,271016627.5287504
6085,271016627.52875024
2,4, 1, 4, 0, 6, 0.00,60.00,Wednesday
213,289119837.23387265
6085,289119837.2338724
2,4, 1, 4, 0, 7, 0.00,60.00,Wednesday
213,310196249.8042878
6085,310196249.80428755
2,4, 1, 4, 0, 8, 0.00,60.00,Wednesday
213,308102873.1705782
6085,308102873.170578
2,4, 1, 4, 0, 9, 0.00,60.00,Wednesday
213,307976250.0008679
6085,307976250.0008677
2,4, 1, 4, 0,10, 0.00,60.00,Wednesday
213,298372020.4939413
6085,298372020.493941
2,4, 1, 4, 0,11, 0.00,60.00,Wednesday
213,281869918.6851605
6085,281869918.68516034
2,4, 1, 4, 0,12, 0.00,60.00,Wednesday
213,270644006.52002954
6085,270644006.5200294
2,4, 1, 4, 0,13, 0.00,60.00,Wednesday
213,259407653.1637498
6085,259407653.1637496
2,4, 1, 4, 0,14, 0.00,60.00,Wednesday
213,256076277.11294097
6085,256076277.11294073
2,4, 1, 4, 0,15, 0.00,60.00,Wednesday
213,261578619.06086016
6085,261578619.06086004
2,4, 1, 4, 0,16, 0.00,60.00,Wednesday
213,269915824.60495555
6085,269915824.6049553
2,4, 1, 4, 0,17, 0.00,60.00,Wednesday
213,299969258.12994313
6085,299969258.1299433
2,4, 1, 4, 0,18, 0.00,60.00,Wednesday
213,355734446.694254
6085,355734446.6942544
2,4, 1, 4, 0,19, 0.00,60.00,Wednesday
213,371695515.4900326
6085,371695515.490033
2,4, 1, 4, 0,20, 0.00,60.00,Wednesday
213,354155476.368171
6085,354155476.36817133
2,4, 1, 4, 0,21, 0.00,60.00,Wednesday
213,355091551.1501287
6085,355091551.1501292
2,4, 1, 4, 0,22, 0.00,60.00,Wednesday
213,336577754.17323035
6085,336577754.17323047
2,4, 1, 4, 0,23, 0.00,60.00,Wednesday
213,299445379.9377889
6085,299445379.9377887
2,4, 1, 4, 0,24, 0.00,60.00,Wednesday
213,280006974.8746745
6085,280006974.8746743
2,5, 1, 5, 0, 1, 0.00,60.00,Thursday
213,263369274.60281315
6085,263369274.60281315
2,5, 1, 5, 0, 2, 0.00,60.00,Thursday
213,253885503.94593862
6085,253885503.94593847
2,5, 1, 5, 0, 3, 0.00,60.00,Thursday
213,255305767.79898834
6085,255305767.7989882
2,5, 1, 5, 0, 4, 0.00,60.00,Thursday
213,253448262.45391625
6085,253448262.45391607
2,5, 1, 5, 0, 5, 0.00,60.00,Thursday
213,251785061.93350047
6085,251785061.93350035
2,5, 1, 5, 0, 6, 0.00,60.00,Thursday
213,274508035.0880492
6085,274508035.08804893
2,5, 1, 5, 0, 7, 0.00,60.00,Thursday
213,302375116.6595568
6085,302375116.65955657
2,5, 1, 5, 0, 8, 0.00,60.00,Thursday
213,299238248.2434839
6085,299238248.2434838
2,5, 1, 5, 0, 9, 0.00,60.00,Thursday
213,287520782.42250365
6085,287520782.4225035
2,5, 1, 5, 0,10, 0.00,60.00,Thursday
213,261922546.85485885
6085,261922546.8548587
2,5, 1, 5, 0,11, 0.00,60.00,Thursday
213,237300999.91328895
6085,237300999.9132888
2,5, 1, 5, 0,12, 0.00,60.00,Thursday
213,228193652.7902491
6085,228193652.79024893
2,5, 1, 5, 0,13, 0.00,60.00,Thursday
213,218049014.07794884
6085,218049014.07794866
2,5, 1, 5, 0,14, 0.00,60.00,Thursday
213,208233991.13011107
6085,208233991.13011095
2,5, 1, 5, 0,15, 0.00,60.00,Thursday
213,196021339.31224617
6085,196021339.31224597
2,5, 1, 5, 0,16, 0.00,60.00,Thursday
213,200653988.95890787
6085,200653988.95890766
2,5, 1, 5, 0,17, 0.00,60.00,Thursday
213,238004890.36468726
6085,238004890.3646871
2,5, 1, 5, 0,18, 0.00,60.00,Thursday
213,301500400.23806
6085,301500400.23806053
2,5, 1, 5, 0,19, 0.00,60.00,Thursday
213,331534751.75525886
6085,331534751.7552593
2,5, 1, 5, 0,20, 0.00,60.00,Thursday
213,324527692.4342768
6085,324527692.43427724
2,5, 1, 5, 0,21, 0.00,60.00,Thursday
213,322939760.6767985
6085,322939760.6767989
2,5, 1, 5, 0,22, 0.00,60.00,Thursday
213,305759564.61332077
6085,305759564.613321
2,5, 1, 5, 0,23, 0.00,60.00,Thursday
213,273934997.1319796
6085,273934997.13197947
2,5, 1, 5, 0,24, 0.00,60.00,Thursday
213,247764616.83351922
6085,247764616.833519
2,6, 1, 6, 0, 1, 0.00,60.00,Friday
213,230714192.10233855
6085,230714192.10233855
2,6, 1, 6, 0, 2, 0.00,60.00,Friday
213,228726086.70740828
6085,228726086.70740813
2,6, 1, 6, 0, 3, 0.00,60.00,Friday
213,228548858.05075082
6085,228548858.0507507
2,6, 1, 6, 0, 4, 0.00,60.00,Friday
213,228855391.4191145
6085,228855391.41911435
2,6, 1, 6, 0, 5, 0.00,60.00,Friday
213,232124686.6294109
6085,232124686.62941074
2,6, 1, 6, 0, 6, 0.00,60.00,Friday
213,247679318.07527107
6085,247679318.07527083
2,6, 1, 6, 0, 7, 0.00,60.00,Friday
213,271002500.21338457
6085,271002500.2133844
2,6, 1, 6, 0, 8, 0.00,60.00,Friday
213,270186631.0850605
6085,270186631.08506024
2,6, 1, 6, 0, 9, 0.00,60.00,Friday
213,255096955.6317897
6085,255096955.6317895
2,6, 1, 6, 0,10, 0.00,60.00,Friday
213,220965658.4631804
6085,220965658.46318018
2,6, 1, 6, 0,11, 0.00,60.00,Friday
213,196500235.76393992
6085,196500235.7639398
2,6, 1, 6, 0,12, 0.00,60.00,Friday
213,194812072.31088322
6085,194812072.31088305
2,6, 1, 6, 0,13, 0.00,60.00,Friday
213,191358048.99210346
6085,191358048.99210328
2,6, 1, 6, 0,14, 0.00,60.00,Friday
213,186875640.44974634
6085,186875640.44974616
2,6, 1, 6, 0,15, 0.00,60.00,Friday
213,183407295.78712225
6085,183407295.78712204
2,6, 1, 6, 0,16, 0.00,60.00,Friday
213,193657016.2342317
6085,193657016.2342315
2,6, 1, 6, 0,17, 0.00,60.00,Friday
213,226430495.65648454
6085,226430495.65648437
2,6, 1, 6, 0,18, 0.00,60.00,Friday
213,273343215.1216141
6085,273343215.12161463
2,6, 1, 6, 0,19, 0.00,60.00,Friday
213,303307711.3208869
6085,303307711.3208874
2,6, 1, 6, 0,20, 0.00,60.00,Friday
213,293792773.5119344
6085,293792773.5119349
2,6, 1, 6, 0,21, 0.00,60.00,Friday
213,290428867.4916589
6085,290428867.4916594
2,6, 1, 6, 0,22, 0.00,60.00,Friday
213,276658447.3194786
6085,276658447.3194787
2,6, 1, 6, 0,23, 0.00,60.00,Friday
213,247950606.19793364
6085,247950606.19793344
2,6, 1, 6, 0,24, 0.00,60.00,Friday
213,228363539.88451064
6085,228363539.8845105
2,7, 1, 7, 0, 1, 0.00,60.00,Saturday
213,222524520.71185505
6085,222524520.71185502
2,7, 1, 7, 0, 2, 0.00,60.00,Saturday
213,230213531.5291211
6085,230213531.52912095
2,7, 1, 7, 0, 3, 0.00,60.00,Saturday
213,233750965.46762422
6085,233750965.46762413
2,7, 1, 7, 0, 4, 0.00,60.00,Saturday
213,235860525.90060192
6085,235860525.9006018
2,7, 1, 7, 0, 5, 0.00,60.00,Saturday
213,242149464.3722718
6085,242149464.37227172
2,7, 1, 7, 0, 6, 0.00,60.00,Saturday
213,262663093.90095612
6085,262663093.90095595
2,7, 1, 7, 0, 7, 0.00,60.00,Saturday
213,288058336.4731456
6085,288058336.4731455
2,7, 1, 7, 0, 8, 0.00,60.00,Saturday
213,285949250.1137649
6085,285949250.11376464
2,7, 1, 7, 0, 9, 0.00,60.00,Saturday
213,259078258.6246161
6085,259078258.6246159
2,7, 1, 7, 0,10, 0.00,60.00,Saturday
213,230015496.0897757
6085,230015496.08977547
2,7, 1, 7, 0,11, 0.00,60.00,Saturday
213,207474610.6798332
6085,207474610.67983305
2,7, 1, 7, 0,12, 0.00,60.00,Saturday
213,197895309.99410394
6085,197895309.99410367
2,7, 1, 7, 0,13, 0.00,60.00,Saturday
213,192881818.30081666
6085,192881818.3008165
2,7, 1, 7, 0,14, 0.00,60.00,Saturday
213,187114690.48286888
6085,187114690.4828687
2,7, 1, 7, 0,15, 0.00,60.00,Saturday
213,182358156.94785172
6085,182358156.9478515
2,7, 1, 7, 0,16, 0.00,60.00,Saturday
213,187184327.44137833
6085,187184327.44137812
2,7, 1, 7, 0,17, 0.00,60.00,Saturday
213,224984927.97858393
6085,224984927.9785838
2,7, 1, 7, 0,18, 0.00,60.00,Saturday
213,283668970.1447138
6085,283668970.14471424
2,7, 1, 7, 0,19, 0.00,60.00,Saturday
213,310590435.14327395
6085,310590435.1432743
2,7, 1, 7, 0,20, 0.00,60.00,Saturday
213,300945909.2412022
6085,300945909.24120265
2,7, 1, 7, 0,21, 0.00,60.00,Saturday
213,298811191.640177
6085,298811191.6401774
2,7, 1, 7, 0,22, 0.00,60.00,Saturday
213,282269926.1014805
6085,282269926.1014806
2,7, 1, 7, 0,23, 0.00,60.00,Saturday
213,253105134.68686843
6085,253105134.68686825
2,7, 1, 7, 0,24, 0.00,60.00,Saturday
213,231856768.54640448
6085,231856768.54640433
2,8, 1, 8, 0, 1, 0.00,60.00,Sunday
213,221293524.25763094
6085,221293524.25763094
2,8, 1, 8, 0, 2, 0.00,60.00,Sunday
213,224378602.4361482
6085,224378602.43614808
2,8, 1, 8, 0, 3, 0.00,60.00,Sunday
213,229492186.6985268
6085,229492186.6985267
2,8, 1, 8, 0, 4, 0.00,60.00,Sunday
213,233172646.6659336
6085,233172646.6659335
2,8, 1, 8, 0, 5, 0.00,60.00,Sunday
213,239339574.1520668
6085,239339574.15206665
2,8, 1, 8, 0, 6, 0.00,60.00,Sunday
213,257257492.3527627
6085,257257492.35276252
2,8, 1, 8, 0, 7, 0.00,60.00,Sunday
213,283822125.55742896
6085,283822125.5574288
2,8, 1, 8, 0, 8, 0.00,60.00,Sunday
213,285877613.50372005
6085,285877613.50371987
2,8, 1, 8, 0, 9, 0.00,60.00,Sunday
213,254919929.68441293
6085,254919929.68441275
2,8, 1, 8, 0,10, 0.00,60.00,Sunday
213,222327253.60202813
6085,222327253.6020279
2,8, 1, 8, 0,11, 0.00,60.00,Sunday
213,199847588.57912526
6085,199847588.5791251
2,8, 1, 8, 0,12, 0.00,60.00,Sunday
213,193602881.01975006
6085,193602881.01974988
2,8, 1, 8, 0,13, 0.00,60.00,Sunday
213,191406752.82410422
6085,191406752.82410404
2,8, 1, 8, 0,14, 0.00,60.00,Sunday
213,193164948.44839
6085,193164948.44838983
2,8, 1, 8, 0,15, 0.00,60.00,Sunday
213,199265365.02434367
6085,199265365.0243435
2,8, 1, 8, 0,16, 0.00,60.00,Sunday
213,199863359.36811173
6085,199863359.36811158
2,8, 1, 8, 0,17, 0.00,60.00,Sunday
213,230615262.48762804
6085,230615262.48762786
2,8, 1, 8, 0,18, 0.00,60.00,Sunday
213,274365839.5388296
6085,274365839.5388301
2,8, 1, 8, 0,19, 0.00,60.00,Sunday
213,300364338.6143815
6085,300364338.6143819
2,8, 1, 8, 0,20, 0.00,60.00,Sunday
213,290545165.7909111
6085,290545165.79091156
2,8, 1, 8, 0,21, 0.00,60.00,Sunday
213,288922561.9628798
6085,288922561.96288013
2,8, 1, 8, 0,22, 0.00,60.00,Sunday
213,274047526.92074835
6085,274047526.92074853
2,8, 1, 8, 0,23, 0.00,60.00,Sunday
213,243693956.69696346
6085,243693956.69696325
2,8, 1, 8, 0,24, 0.00,60.00,Sunday
213,218914550.7967013
6085,218914550.79670113
2,9, 1, 9, 0, 1, 0.00,60.00,Monday
213,204795444.04183778
6085,204795444.04183772
2,9, 1, 9, 0, 2, 0.00,60.00,Monday
213,211072790.09868446
6085,211072790.0986843
2,9, 1, 9, 0, 3, 0.00,60.00,Monday
213,216343775.17769197
6085,216343775.17769182
2,9, 1, 9, 0, 4, 0.00,60.00,Monday
213,218788934.91689703
6085,218788934.91689688
2,9, 1, 9, 0, 5, 0.00,60.00,Monday
213,231107750.3708605
6085,231107750.37086037
2,9, 1, 9, 0, 6, 0.00,60.00,Monday
213,253752472.19635278
6085,253752472.19635263
2,9, 1, 9, 0, 7, 0.00,60.00,Monday
213,284189952.8790378
6085,284189952.8790376
2,9, 1, 9, 0, 8, 0.00,60.00,Monday
213,287164320.8242706
6085,287164320.82427037
2,9, 1, 9, 0, 9, 0.00,60.00,Monday
213,262257748.94399393
6085,262257748.94399363
2,9, 1, 9, 0,10, 0.00,60.00,Monday
213,226952834.18629745
6085,226952834.1862973
2,9, 1, 9, 0,11, 0.00,60.00,Monday
213,202434057.75465518
6085,202434057.75465497
2,9, 1, 9, 0,12, 0.00,60.00,Monday
213,192905257.98810172
6085,192905257.98810148
2,9, 1, 9, 0,13, 0.00,60.00,Monday
213,203234434.35612056
6085,203234434.35612038
2,9, 1, 9, 0,14, 0.00,60.00,Monday
213,217468278.82474062
6085,217468278.82474047
2,9, 1, 9, 0,15, 0.00,60.00,Monday
213,225097899.86078352
6085,225097899.86078334
2,9, 1, 9, 0,16, 0.00,60.00,Monday
213,232895622.94501296
6085,232895622.9450128
2,9, 1, 9, 0,17, 0.00,60.00,Monday
213,252912937.85147864
6085,252912937.8514787
2,9, 1, 9, 0,18, 0.00,60.00,Monday
213,273853727.6639944
6085,273853727.6639949
2,9, 1, 9, 0,19, 0.00,60.00,Monday
213,294127971.2579857
6085,294127971.2579862
2,9, 1, 9, 0,20, 0.00,60.00,Monday
213,286406450.12136316
6085,286406450.12136364
2,9, 1, 9, 0,21, 0.00,60.00,Monday
213,285167964.1043024
6085,285167964.1043029
2,9, 1, 9, 0,22, 0.00,60.00,Monday
213,269509053.4883449
6085,269509053.488345
2,9, 1, 9, 0,23, 0.00,60.00,Monday
213,237949994.90310293
6085,237949994.90310273
2,9, 1, 9, 0,24, 0.00,60.00,Monday
213,220205878.32268688
6085,220205878.3226867
2,10, 1,10, 0, 1, 0.00,60.00,Tuesday
213,208273294.16114256
6085,208273294.16114253
2,10, 1,10, 0, 2, 0.00,60.00,Tuesday
213,208222995.187122
6085,208222995.18712187
2,10, 1,10, 0, 3, 0.00,60.00,Tuesday
213,209858037.4764391
6085,209858037.47643897
2,10, 1,10, 0, 4, 0.00,60.00,Tuesday
213,213589787.93327022
6085,213589787.9332701
2,10, 1,10, 0, 5, 0.00,60.00,Tuesday
213,222538367.9782353
6085,222538367.97823521
2,10, 1,10, 0, 6, 0.00,60.00,Tuesday
213,245175776.74153918
6085,245175776.74153906
2,10, 1,10, 0, 7, 0.00,60.00,Tuesday
213,275562878.2102837
6085,275562878.21028346
2,10, 1,10, 0, 8, 0.00,60.00,Tuesday
213,279347566.9832788
6085,279347566.98327863
2,10, 1,10, 0, 9, 0.00,60.00,Tuesday
213,259274665.30168208
6085,259274665.30168194
2,10, 1,10, 0,10, 0.00,60.00,Tuesday
213,228761158.15707868
6085,228761158.1570785
2,10, 1,10, 0,11, 0.00,60.00,Tuesday
213,198338785.97575268
6085,198338785.97575253
2,10, 1,10, 0,12, 0.00,60.00,Tuesday
213,191642305.45534733
6085,191642305.45534712
2,10, 1,10, 0,13, 0.00,60.00,Tuesday
213,207112509.74118826
6085,207112509.74118814
2,10, 1,10, 0,14, 0.00,60.00,Tuesday
213,218577932.06567425
6085,218577932.06567407
2,10, 1,10, 0,15, 0.00,60.00,Tuesday
213,194522593.37312958
6085,194522593.37312943
2,10, 1,10, 0,16, 0.00,60.00,Tuesday
213,157952780.16742152
6085,157952780.16742134
2,10, 1,10, 0,17, 0.00,60.00,Tuesday
213,196337339.04843011
6085,196337339.04842994
2,10, 1,10, 0,18, 0.00,60.00,Tuesday
213,251943685.58694965
6085,251943685.58695006
2,10, 1,10, 0,19, 0.00,60.00,Tuesday
213,276837777.09457207
6085,276837777.09457254
2,10, 1,10, 0,20, 0.00,60.00,Tuesday
213,271633623.9260802
6085,271633623.92608076
2,10, 1,10, 0,21, 0.00,60.00,Tuesday
213,275940895.18407476
6085,275940895.1840752
2,10, 1,10, 0,22, 0.00,60.00,Tuesday
213,259462743.78733242
6085,259462743.7873326
2,10, 1,10, 0,23, 0.00,60.00,Tuesday
213,225641724.3704906
6085,225641724.37049043
2,10, 1,10, 0,24, 0.00,60.00,Tuesday
213,197814288.12764174
6085,197814288.12764156
2,11, 1,11, 0, 1, 0.00,60.00,Wednesday
213,179206457.5256769
6085,179206457.52567685
2,11, 1,11, 0, 2, 0.00,60.00,Wednesday
213,175729612.57986388
6085,175729612.5798637
2,11, 1,11, 0, 3, 0.00,60.00,Wednesday
213,177576471.72656813
6085,177576471.72656792
2,11, 1,11, 0, 4, 0.00,60.00,Wednesday
213,177513826.26409465
6085,177513826.26409444
2,11, 1,11, 0, 5, 0.00,60.00,Wednesday
213,178166997.12284157
6085,178166997.1228414
2,11, 1,11, 0, 6, 0.00,60.00,Wednesday
213,200415353.97081402
6085,200415353.9708139
2,11, 1,11, 0, 7, 0.00,60.00,Wednesday
213,226070702.91778594
6085,226070702.91778573
2,11, 1,11, 0, 8, 0.00,60.00,Wednesday
213,225298467.84154147
6085,225298467.84154126
2,11, 1,11, 0, 9, 0.00,60.00,Wednesday
213,223342531.77488744
6085,223342531.77488723
2,11, 1,11, 0,10, 0.00,60.00,Wednesday
213,214002880.24438158
6085,214002880.24438146
2,11, 1,11, 0,11, 0.00,60.00,Wednesday
213,197937396.4010368
6085,197937396.40103662
2,11, 1,11, 0,12, 0.00,60.00,Wednesday
213,207520583.66570905
6085,207520583.6657089
2,11, 1,11, 0,13, 0.00,60.00,Wednesday
213,204204675.94481993
6085,204204675.94481972
2,11, 1,11, 0,14, 0.00,60.00,Wednesday
213,196074325.69431472
6085,196074325.69431454
2,11, 1,11, 0,15, 0.00,60.00,Wednesday
213,205339112.7030769
6085,205339112.70307672
2,11, 1,11, 0,16, 0.00,60.00,Wednesday
213,221660510.42912555
6085,221660510.4291254
2,11, 1,11, 0,17, 0.00,60.00,Wednesday
213,257368290.4580999
6085,257368290.45810005
2,11, 1,11, 0,18, 0.00,60.00,Wednesday
213,311665363.8172053
6085,311665363.8172058
2,11, 1,11, 0,19, 0.00,60.00,Wednesday
213,332377446.08586985
6085,332377446.08587027
2,11, 1,11, 0,20, 0.00,60.00,Wednesday
213,320629374.5971822
6085,320629374.59718263
2,11, 1,11, 0,21, 0.00,60.00,Wednesday
213,315451332.7493029
6085,315451332.74930346
2,11, 1,11, 0,22, 0.00,60.00,Wednesday
213,299143572.2962074
6085,299143572.2962076
2,11, 1,11, 0,23, 0.00,60.00,Wednesday
213,270190715.3416647
6085,270190715.34166443
2,11, 1,11, 0,24, 0.00,60.00,Wednesday
213,251155839.75336772
6085,251155839.75336748
2,12, 1,12, 0, 1, 0.00,60.00,Thursday
213,237684284.06685868
6085,237684284.0668586
2,12, 1,12, 0, 2, 0.00,60.00,Thursday
213,235942465.75593942
6085,235942465.7559393
2,12, 1,12, 0, 3, 0.00,60.00,Thursday
213,235630856.88214776
6085,235630856.88214764
2,12, 1,12, 0, 4, 0.00,60.00,Thursday
213,235139262.00615096
6085,235139262.0061508
2,12, 1,12, 0, 5, 0.00,60.00,Thursday
213,238586310.21686596
6085,238586310.21686578
2,12, 1,12, 0, 6, 0.00,60.00,Thursday
213,261749870.5755443
6085,261749870.5755441
2,12, 1,12, 0, 7, 0.00,60.00,Thursday
213,286797201.42028254
6085,286797201.42028236
2,12, 1,12, 0, 8, 0.00,60.00,Thursday
213,283360639.71315545
6085,283360639.7131552
2,12, 1,12, 0, 9, 0.00,60.00,Thursday
213,286211908.06628114
6085,286211908.06628096
2,12, 1,12, 0,10, 0.00,60.00,Thursday
213,272778000.4158264
6085,272778000.4158262
2,12, 1,12, 0,11, 0.00,60.00,Thursday
213,245924544.1960565
6085,245924544.19605634
2,12, 1,12, 0,12, 0.00,60.00,Thursday
213,249375654.2434376
6085,249375654.24343738
2,12, 1,12, 0,13, 0.00,60.00,Thursday
213,242533754.92630306
6085,242533754.92630285
2,12, 1,12, 0,14, 0.00,60.00,Thursday
213,230466070.0160118
6085,230466070.0160116
2,12, 1,12, 0,15, 0.00,60.00,Thursday
213,239937306.70841083
6085,239937306.70841062
2,12, 1,12, 0,16, 0.00,60.00,Thursday
213,252340655.66439897
6085,252340655.6643988
2,12, 1,12, 0,17, 0.00,60.00,Thursday
213,287557073.7377548
6085,287557073.73775494
2,12, 1,12, 0,18, 0.00,60.00,Thursday
213,343755362.9171399
6085,343755362.91714036
2,12, 1,12, 0,19, 0.00,60.00,Thursday
213,357504114.3295611
6085,357504114.3295616
2,12, 1,12, 0,20, 0.00,60.00,Thursday
213,340223281.86670685
6085,340223281.8667073
2,12, 1,12, 0,21, 0.00,60.00,Thursday
213,340490782.8700007
6085,340490782.87000114
2,12, 1,12, 0,22, 0.00,60.00,Thursday
213,321815585.80466956
6085,321815585.8046698
2,12, 1,12, 0,23, 0.00,60.00,Thursday
213,285517631.64951736
6085,285517631.6495172
2,12, 1,12, 0,24, 0.00,60.00,Thursday
213,266496013.9626986
6085,266496013.9626984
2,13, 1,13, 0, 1, 0.00,60.00,Friday
213,254319553.17841485
6085,254319553.17841482
2,13, 1,13, 0, 2, 0.00,60.00,Friday
213,249444797.1130101
6085,249444797.11300996
2,13, 1,13, 0, 3, 0.00,60.00,Friday
213,254831851.44905525
6085,254831851.44905514
2,13, 1,13, 0, 4, 0.00,60.00,Friday
213,254212789.225636
6085,254212789.22563586
2,13, 1,13, 0, 5, 0.00,60.00,Friday
213,251616822.30676895
6085,251616822.3067688
2,13, 1,13, 0, 6, 0.00,60.00,Friday
213,273378271.6843124
6085,273378271.6843121
2,13, 1,13, 0, 7, 0.00,60.00,Friday
213,296102348.4103931
6085,296102348.41039294
2,13, 1,13, 0, 8, 0.00,60.00,Friday
213,292109156.20507276
6085,292109156.2050726
2,13, 1,13, 0, 9, 0.00,60.00,Friday
213,290717335.99988675
6085,290717335.9998865
2,13, 1,13, 0,10, 0.00,60.00,Friday
213,276616028.791536
6085,276616028.79153574
2,13, 1,13, 0,11, 0.00,60.00,Friday
213,259621212.9640229
6085,259621212.9640227
2,13, 1,13, 0,12, 0.00,60.00,Friday
213,257229864.0188383
6085,257229864.01883808
2,13, 1,13, 0,13, 0.00,60.00,Friday
213,251143189.82517558
6085,251143189.8251754
2,13, 1,13, 0,14, 0.00,60.00,Friday
213,249980142.6408337
6085,249980142.64083356
2,13, 1,13, 0,15, 0.00,60.00,Friday
213,250434674.68066394
6085,250434674.68066376
2,13, 1,13, 0,16, 0.00,60.00,Friday
213,259867652.36307007
6085,259867652.3630699
2,13, 1,13, 0,17, 0.00,60.00,Friday
213,294604845.40415853
6085,294604845.4041587
2,13, 1,13, 0,18, 0.00,60.00,Friday
213,345199736.4096911
6085,345199736.4096916
2,13, 1,13, 0,19, 0.00,60.00,Friday
213,361936184.2534147
6085,361936184.25341517
2,13, 1,13, 0,20, 0.00,60.00,Friday
213,349231027.0877396
6085,349231027.08774006
2,13, 1,13, 0,21, 0.00,60.00,Friday
213,350506494.89108056
6085,350506494.891081
2,13, 1,13, 0,22, 0.00,60.00,Friday
213,332361872.19439584
6085,332361872.194396
2,13, 1,13, 0,23, 0.00,60.00,Friday
213,296120993.638459
6085,296120993.63845885
2,13, 1,13, 0,24, 0.00,60.00,Friday
213,270781080.57957023
6085,270781080.57957005
2,14, 1,14, 0, 1, 0.00,60.00,Saturday
213,258138565.18986762
6085,258138565.1898676
2,14, 1,14, 0, 2, 0.00,60.00,Saturday
213,256767441.27330306
6085,256767441.27330297
2,14, 1,14, 0, 3, 0.00,60.00,Saturday
213,260645186.04687607
6085,260645186.04687595
2,14, 1,14, 0, 4, 0.00,60.00,Saturday
213,259901734.13975355
6085,259901734.1397535
2,14, 1,14, 0, 5, 0.00,60.00,Saturday
213,258596117.1869948
6085,258596117.18699467
2,14, 1,14, 0, 6, 0.00,60.00,Saturday
213,279281204.5945078
6085,279281204.59450763
2,14, 1,14, 0, 7, 0.00,60.00,Saturday
213,301057054.7068253
6085,301057054.7068251
2,14, 1,14, 0, 8, 0.00,60.00,Saturday
213,294823826.2215041
6085,294823826.22150385
2,14, 1,14, 0, 9, 0.00,60.00,Saturday
213,286967862.0383894
6085,286967862.03838915
2,14, 1,14, 0,10, 0.00,60.00,Saturday
213,273608933.36089927
6085,273608933.36089903
2,14, 1,14, 0,11, 0.00,60.00,Saturday
213,251657445.55805135
6085,251657445.55805114
2,14, 1,14, 0,12, 0.00,60.00,Saturday
213,262469150.0702847
6085,262469150.0702845
2,14, 1,14, 0,13, 0.00,60.00,Saturday
213,258924803.0227535
6085,258924803.02275333
2,14, 1,14, 0,14, 0.00,60.00,Saturday
213,246428970.9021365
6085,246428970.9021363
2,14, 1,14, 0,15, 0.00,60.00,Saturday
213,256998210.09328026
6085,256998210.09328005
2,14, 1,14, 0,16, 0.00,60.00,Saturday
213,269974217.7885591
6085,269974217.7885589
2,14, 1,14, 0,17, 0.00,60.00,Saturday
213,294375902.22439826
6085,294375902.2243985
2,14, 1,14, 0,18, 0.00,60.00,Saturday
213,352737307.6389701
6085,352737307.6389705
2,14, 1,14, 0,19, 0.00,60.00,Saturday
213,375535599.7604852
6085,375535599.76048565
2,14, 1,14, 0,20, 0.00,60.00,Saturday
213,358916861.3217887
6085,358916861.3217891
2,14, 1,14, 0,21, 0.00,60.00,Saturday
213,356873514.11780244
6085,356873514.1178029
2,14, 1,14, 0,22, 0.00,60.00,Saturday
213,335187262.1323866
6085,335187262.1323868
2,14, 1,14, 0,23, 0.00,60.00,Saturday
213,298348018.63603425
6085,298348018.6360341
2,14, 1,14, 0,24, 0.00,60.00,Saturday
213,273990047.4308721
6085,273990047.43087184
2,15, 1,15, 0, 1, 0.00,60.00,Sunday
213,257300768.69851714
6085,257300768.69851714
2,15, 1,15, 0, 2, 0.00,60.00,Sunday
213,253163599.146009
6085,253163599.14600882
2,15, 1,15, 0, 3, 0.00,60.00,Sunday
213,257514285.70429692
6085,257514285.70429677
2,15, 1,15, 0, 4, 0.00,60.00,Sunday
213,256769699.95293367
6085,256769699.95293355
2,15, 1,15, 0, 5, 0.00,60.00,Sunday
213,255344408.46329302
6085,255344408.46329293
2,15, 1,15, 0, 6, 0.00,60.00,Sunday
213,268990666.51491624
6085,268990666.51491606
2,15, 1,15, 0, 7, 0.00,60.00,Sunday
213,293079805.8340445
6085,293079805.83404434
2,15, 1,15, 0, 8, 0.00,60.00,Sunday
213,295375477.4305294
6085,295375477.43052924
2,15, 1,15, 0, 9, 0.00,60.00,Sunday
213,294805366.61646044
6085,294805366.61646026
2,15, 1,15, 0,10, 0.00,60.00,Sunday
213,288227743.15874946
6085,288227743.1587492
2,15, 1,15, 0,11, 0.00,60.00,Sunday
213,269826680.7401429
6085,269826680.7401427
2,15, 1,15, 0,12, 0.00,60.00,Sunday
213,271497433.81835175
6085,271497433.8183515
2,15, 1,15, 0,13, 0.00,60.00,Sunday
213,269462919.8032632
6085,269462919.803263
2,15, 1,15, 0,14, 0.00,60.00,Sunday
213,266158792.01832223
6085,266158792.01832205
2,15, 1,15, 0,15, 0.00,60.00,Sunday
213,265990249.32428157
6085,265990249.32428145
2,15, 1,15, 0,16, 0.00,60.00,Sunday
213,279226482.41122866
6085,279226482.41122854
2,15, 1,15, 0,17, 0.00,60.00,Sunday
213,309829145.31224823
6085,309829145.3122484
2,15, 1,15, 0,18, 0.00,60.00,Sunday
213,354627242.7673319
6085,354627242.7673324