Program Version,EnergyPlus, Version 26.1.0-6f2e40d102, YMD=2026.04.15 00:06
1,5,Environment Title[],Latitude[deg],Longitude[deg],Time Zone[],Elevation[m]
2,8,Day of Simulation[],Month[],Day of Month[],DST Indicator[1=yes 0=no],Hour[],StartMinute[],EndMinute[],DayType
3,5,Cumulative Day of Simulation[],Month[],Day of Month[],DST Indicator[1=yes 0=no],DayType  ! When Daily Meters Requested
4,2,Cumulative Days of Simulation[],Month[]  ! When Monthly Meters Requested
5,1,Cumulative Days of Simulation[] ! When Run Period Meters Requested
6,1,Calendar Year of Simulation[] ! When Annual Meters Requested
213,1,Electricity:Facility [J] !Hourly
5925,1,ElectricityNet:Facility [J] !Hourly
End of Data Dictionary
1,RUNPERIOD 1,  28.11, 112.79,   8.00, 120.00
2,1, 1, 1, 0, 1, 0.00,60.00,Sunday
213,92690124.94857004
5925,92690124.94857003
2,1, 1, 1, 0, 2, 0.00,60.00,Sunday
213,95660391.41561891
5925,95660391.41561894
2,1, 1, 1, 0, 3, 0.00,60.00,Sunday
213,100594441.41286142
5925,100594441.41286144
2,1, 1, 1, 0, 4, 0.00,60.00,Sunday
213,93938894.08259661
5925,93938894.08259661
2,1, 1, 1, 0, 5, 0.00,60.00,Sunday
213,103897733.83765411
5925,103897733.8376541
2,1, 1, 1, 0, 6, 0.00,60.00,Sunday
213,130584383.61987787
5925,130584383.61987787
2,1, 1, 1, 0, 7, 0.00,60.00,Sunday
213,195807511.92255938
5925,195807511.92255938
2,1, 1, 1, 0, 8, 0.00,60.00,Sunday
213,199574342.02433652
5925,199574342.02433652
2,1, 1, 1, 0, 9, 0.00,60.00,Sunday
213,179557976.2239481
5925,179557976.2239481
2,1, 1, 1, 0,10, 0.00,60.00,Sunday
213,159928056.66895568
5925,159928056.66895568
2,1, 1, 1, 0,11, 0.00,60.00,Sunday
213,160680200.01407474
5925,160680200.01407474
2,1, 1, 1, 0,12, 0.00,60.00,Sunday
213,143467888.80633798
5925,143467888.806338
2,1, 1, 1, 0,13, 0.00,60.00,Sunday
213,132457840.3850895
5925,132457840.3850895
2,1, 1, 1, 0,14, 0.00,60.00,Sunday
213,136931522.81747067
5925,136931522.81747067
2,1, 1, 1, 0,15, 0.00,60.00,Sunday
213,117424050.44787966
5925,117424050.44787967
2,1, 1, 1, 0,16, 0.00,60.00,Sunday
213,143585812.47346625
5925,143585812.47346625
2,1, 1, 1, 0,17, 0.00,60.00,Sunday
213,162436034.27633226
5925,162436034.2763325
2,1, 1, 1, 0,18, 0.00,60.00,Sunday
213,203100222.7690556
5925,203100222.76905593
2,1, 1, 1, 0,19, 0.00,60.00,Sunday
213,241082095.29156548
5925,241082095.29156575
2,1, 1, 1, 0,20, 0.00,60.00,Sunday
213,224660867.23343226
5925,224660867.23343256
2,1, 1, 1, 0,21, 0.00,60.00,Sunday
213,227773737.8962646
5925,227773737.89626503
2,1, 1, 1, 0,22, 0.00,60.00,Sunday
213,198601017.60333648
5925,198601017.60333666
2,1, 1, 1, 0,23, 0.00,60.00,Sunday
213,169496325.1370142
5925,169496325.13701424
2,1, 1, 1, 0,24, 0.00,60.00,Sunday
213,132298238.59582162
5925,132298238.59582165
2,2, 1, 2, 0, 1, 0.00,60.00,Holiday
213,100542384.75025731
5925,100542384.7502573
2,2, 1, 2, 0, 2, 0.00,60.00,Holiday
213,102943436.42122383
5925,102943436.42122383
2,2, 1, 2, 0, 3, 0.00,60.00,Holiday
213,94605200.97303747
5925,94605200.97303748
2,2, 1, 2, 0, 4, 0.00,60.00,Holiday
213,88791778.41957816
5925,88791778.41957816
2,2, 1, 2, 0, 5, 0.00,60.00,Holiday
213,104916378.66481175
5925,104916378.66481173
2,2, 1, 2, 0, 6, 0.00,60.00,Holiday
213,131621921.27693352
5925,131621921.27693355
2,2, 1, 2, 0, 7, 0.00,60.00,Holiday
213,197570152.4716275
5925,197570152.47162753
2,2, 1, 2, 0, 8, 0.00,60.00,Holiday
213,201636365.3149175
5925,201636365.31491753
2,2, 1, 2, 0, 9, 0.00,60.00,Holiday
213,181178329.94438893
5925,181178329.94438896
2,2, 1, 2, 0,10, 0.00,60.00,Holiday
213,161470074.15919104
5925,161470074.159191
2,2, 1, 2, 0,11, 0.00,60.00,Holiday
213,162546650.55189654
5925,162546650.55189654
2,2, 1, 2, 0,12, 0.00,60.00,Holiday
213,148977546.3312053
5925,148977546.3312053
2,2, 1, 2, 0,13, 0.00,60.00,Holiday
213,140686153.64784366
5925,140686153.64784363
2,2, 1, 2, 0,14, 0.00,60.00,Holiday
213,125248586.59236345
5925,125248586.59236348
2,2, 1, 2, 0,15, 0.00,60.00,Holiday
213,130080224.55648652
5925,130080224.55648652
2,2, 1, 2, 0,16, 0.00,60.00,Holiday
213,128735255.07843679
5925,128735255.07843679
2,2, 1, 2, 0,17, 0.00,60.00,Holiday
213,169961728.4156246
5925,169961728.4156248
2,2, 1, 2, 0,18, 0.00,60.00,Holiday
213,200239033.61748755
5925,200239033.61748785
2,2, 1, 2, 0,19, 0.00,60.00,Holiday
213,242144288.1943437
5925,242144288.194344
2,2, 1, 2, 0,20, 0.00,60.00,Holiday
213,232324363.5834031
5925,232324363.58340347
2,2, 1, 2, 0,21, 0.00,60.00,Holiday
213,218807754.33558923
5925,218807754.3355896
2,2, 1, 2, 0,22, 0.00,60.00,Holiday
213,196283360.56629622
5925,196283360.5662964
2,2, 1, 2, 0,23, 0.00,60.00,Holiday
213,170501038.19224563
5925,170501038.19224563
2,2, 1, 2, 0,24, 0.00,60.00,Holiday
213,133362486.02629986
5925,133362486.02629982
2,3, 1, 3, 0, 1, 0.00,60.00,Tuesday
213,114733171.40941635
5925,114733171.40941635
2,3, 1, 3, 0, 2, 0.00,60.00,Tuesday
213,98027635.66951868
5925,98027635.66951868
2,3, 1, 3, 0, 3, 0.00,60.00,Tuesday
213,89745645.67338961
5925,89745645.67338961
2,3, 1, 3, 0, 4, 0.00,60.00,Tuesday
213,102223733.04503942
5925,102223733.04503942
2,3, 1, 3, 0, 5, 0.00,60.00,Tuesday
213,100078081.5918112
5925,100078081.59181118
2,3, 1, 3, 0, 6, 0.00,60.00,Tuesday
213,134216143.5704841
5925,134216143.57048412
2,3, 1, 3, 0, 7, 0.00,60.00,Tuesday
213,199659285.18296063
5925,199659285.18296066
2,3, 1, 3, 0, 8, 0.00,60.00,Tuesday
213,195397489.93473515
5925,195397489.93473527
2,3, 1, 3, 0, 9, 0.00,60.00,Tuesday
213,194168881.82057157
5925,194168881.82057154
2,3, 1, 3, 0,10, 0.00,60.00,Tuesday
213,172514983.48259497
5925,172514983.482595
2,3, 1, 3, 0,11, 0.00,60.00,Tuesday
213,161772164.6035876
5925,161772164.60358766
2,3, 1, 3, 0,12, 0.00,60.00,Tuesday
213,146908487.40837437
5925,146908487.40837437
2,3, 1, 3, 0,13, 0.00,60.00,Tuesday
213,145232094.80621624
5925,145232094.80621624
2,3, 1, 3, 0,14, 0.00,60.00,Tuesday
213,130283749.44897524
5925,130283749.4489752
2,3, 1, 3, 0,15, 0.00,60.00,Tuesday
213,142986489.13536537
5925,142986489.13536537
2,3, 1, 3, 0,16, 0.00,60.00,Tuesday
213,148092107.81319794
5925,148092107.81319794
2,3, 1, 3, 0,17, 0.00,60.00,Tuesday
213,155294404.07897228
5925,155294404.07897246
2,3, 1, 3, 0,18, 0.00,60.00,Tuesday
213,216037086.18670714
5925,216037086.1867075
2,3, 1, 3, 0,19, 0.00,60.00,Tuesday
213,229769596.63406792
5925,229769596.63406822
2,3, 1, 3, 0,20, 0.00,60.00,Tuesday
213,240639081.5247876
5925,240639081.52478796
2,3, 1, 3, 0,21, 0.00,60.00,Tuesday
213,216273499.6864324
5925,216273499.6864327
2,3, 1, 3, 0,22, 0.00,60.00,Tuesday
213,200184158.04722664
5925,200184158.04722688
2,3, 1, 3, 0,23, 0.00,60.00,Tuesday
213,170936539.59960568
5925,170936539.59960562
2,3, 1, 3, 0,24, 0.00,60.00,Tuesday
213,132365300.05613789
5925,132365300.05613786
2,4, 1, 4, 0, 1, 0.00,60.00,Wednesday
213,106790343.80482763
5925,106790343.80482765
2,4, 1, 4, 0, 2, 0.00,60.00,Wednesday
213,98185196.22388163
5925,98185196.22388162
2,4, 1, 4, 0, 3, 0.00,60.00,Wednesday
213,104348395.95127931
5925,104348395.95127933
2,4, 1, 4, 0, 4, 0.00,60.00,Wednesday
213,97569911.8463207
5925,97569911.84632069
2,4, 1, 4, 0, 5, 0.00,60.00,Wednesday
213,93484816.26234703
5925,93484816.26234703
2,4, 1, 4, 0, 6, 0.00,60.00,Wednesday
213,133668026.05996424
5925,133668026.05996424
2,4, 1, 4, 0, 7, 0.00,60.00,Wednesday
213,198961568.22685063
5925,198961568.2268506
2,4, 1, 4, 0, 8, 0.00,60.00,Wednesday
213,203264497.76809517
5925,203264497.76809525
2,4, 1, 4, 0, 9, 0.00,60.00,Wednesday
213,187027335.4775186
5925,187027335.47751865
2,4, 1, 4, 0,10, 0.00,60.00,Wednesday
213,180373643.24405193
5925,180373643.2440519
2,4, 1, 4, 0,11, 0.00,60.00,Wednesday
213,153318930.61854848
5925,153318930.61854848
2,4, 1, 4, 0,12, 0.00,60.00,Wednesday
213,151364304.05273813
5925,151364304.05273816
2,4, 1, 4, 0,13, 0.00,60.00,Wednesday
213,141360401.72359556
5925,141360401.72359556
2,4, 1, 4, 0,14, 0.00,60.00,Wednesday
213,139621649.07066905
5925,139621649.07066905
2,4, 1, 4, 0,15, 0.00,60.00,Wednesday
213,120310291.07123584
5925,120310291.07123584
2,4, 1, 4, 0,16, 0.00,60.00,Wednesday
213,145895257.56933844
5925,145895257.56933844
2,4, 1, 4, 0,17, 0.00,60.00,Wednesday
213,172605923.5116523
5925,172605923.51165247
2,4, 1, 4, 0,18, 0.00,60.00,Wednesday
213,200675152.58992088
5925,200675152.5899212
2,4, 1, 4, 0,19, 0.00,60.00,Wednesday
213,241562662.7436302
5925,241562662.74363053
2,4, 1, 4, 0,20, 0.00,60.00,Wednesday
213,216541162.95900145
5925,216541162.95900178
2,4, 1, 4, 0,21, 0.00,60.00,Wednesday
213,234314552.74757367
5925,234314552.74757403
2,4, 1, 4, 0,22, 0.00,60.00,Wednesday
213,193328789.89279404
5925,193328789.8927943
2,4, 1, 4, 0,23, 0.00,60.00,Wednesday
213,155601342.16426212
5925,155601342.16426212
2,4, 1, 4, 0,24, 0.00,60.00,Wednesday
213,144905792.14255956
5925,144905792.1425596
2,5, 1, 5, 0, 1, 0.00,60.00,Thursday
213,100029244.42958103
5925,100029244.42958103
2,5, 1, 5, 0, 2, 0.00,60.00,Thursday
213,109479166.07310078
5925,109479166.07310078
2,5, 1, 5, 0, 3, 0.00,60.00,Thursday
213,88891845.26991528
5925,88891845.2699153
2,5, 1, 5, 0, 4, 0.00,60.00,Thursday
213,88062864.49230728
5925,88062864.49230726
2,5, 1, 5, 0, 5, 0.00,60.00,Thursday
213,111064654.5382009
5925,111064654.5382009
2,5, 1, 5, 0, 6, 0.00,60.00,Thursday
213,132187272.82852447
5925,132187272.82852447
2,5, 1, 5, 0, 7, 0.00,60.00,Thursday
213,198486034.65984777
5925,198486034.65984777
2,5, 1, 5, 0, 8, 0.00,60.00,Thursday
213,194676891.65255865
5925,194676891.65255868
2,5, 1, 5, 0, 9, 0.00,60.00,Thursday
213,192294852.78131312
5925,192294852.78131315
2,5, 1, 5, 0,10, 0.00,60.00,Thursday
213,154998608.57219926
5925,154998608.57219923
2,5, 1, 5, 0,11, 0.00,60.00,Thursday
213,169357842.10122946
5925,169357842.1012295
2,5, 1, 5, 0,12, 0.00,60.00,Thursday
213,139622065.88130414
5925,139622065.88130414
2,5, 1, 5, 0,13, 0.00,60.00,Thursday
213,131259046.01655194
5925,131259046.01655194
2,5, 1, 5, 0,14, 0.00,60.00,Thursday
213,127467113.90501839
5925,127467113.90501842
2,5, 1, 5, 0,15, 0.00,60.00,Thursday
213,132682190.50551908
5925,132682190.50551906
2,5, 1, 5, 0,16, 0.00,60.00,Thursday
213,123904526.19633019
5925,123904526.19633017
2,5, 1, 5, 0,17, 0.00,60.00,Thursday
213,158641707.5894472
5925,158641707.58944735
2,5, 1, 5, 0,18, 0.00,60.00,Thursday
213,195015700.46424425
5925,195015700.4642445
2,5, 1, 5, 0,19, 0.00,60.00,Thursday
213,237391046.68179175
5925,237391046.6817921
2,5, 1, 5, 0,20, 0.00,60.00,Thursday
213,235040273.05094758
5925,235040273.0509479
2,5, 1, 5, 0,21, 0.00,60.00,Thursday
213,211303709.26756147
5925,211303709.2675618
2,5, 1, 5, 0,22, 0.00,60.00,Thursday
213,195673893.14409524
5925,195673893.14409542
2,5, 1, 5, 0,23, 0.00,60.00,Thursday
213,166472760.08637732
5925,166472760.08637735
2,5, 1, 5, 0,24, 0.00,60.00,Thursday
213,127716237.1415266
5925,127716237.14152661
2,6, 1, 6, 0, 1, 0.00,60.00,Friday
213,102366680.0946151
5925,102366680.09461509
2,6, 1, 6, 0, 2, 0.00,60.00,Friday
213,93401033.84631053
5925,93401033.84631053
2,6, 1, 6, 0, 3, 0.00,60.00,Friday
213,92643292.1212311
5925,92643292.12123108
2,6, 1, 6, 0, 4, 0.00,60.00,Friday
213,98258305.16576444
5925,98258305.16576442
2,6, 1, 6, 0, 5, 0.00,60.00,Friday
213,95055344.2458355
5925,95055344.24583548
2,6, 1, 6, 0, 6, 0.00,60.00,Friday
213,122681254.1241757
5925,122681254.1241757
2,6, 1, 6, 0, 7, 0.00,60.00,Friday
213,200225209.24953836
5925,200225209.24953833
2,6, 1, 6, 0, 8, 0.00,60.00,Friday
213,193101603.69128287
5925,193101603.6912828
2,6, 1, 6, 0, 9, 0.00,60.00,Friday
213,180727845.9176692
5925,180727845.9176692
2,6, 1, 6, 0,10, 0.00,60.00,Friday
213,171193185.0817714
5925,171193185.08177137
2,6, 1, 6, 0,11, 0.00,60.00,Friday
213,142129259.43216512
5925,142129259.43216512
2,6, 1, 6, 0,12, 0.00,60.00,Friday
213,141075557.68242615
5925,141075557.68242615
2,6, 1, 6, 0,13, 0.00,60.00,Friday
213,135003187.35866925
5925,135003187.35866922
2,6, 1, 6, 0,14, 0.00,60.00,Friday
213,123038112.70983723
5925,123038112.70983723
2,6, 1, 6, 0,15, 0.00,60.00,Friday
213,135997681.34784174
5925,135997681.34784177
2,6, 1, 6, 0,16, 0.00,60.00,Friday
213,133981340.39493242
5925,133981340.39493239
2,6, 1, 6, 0,17, 0.00,60.00,Friday
213,147329572.38526133
5925,147329572.38526136
2,6, 1, 6, 0,18, 0.00,60.00,Friday
213,202518465.70175606
5925,202518465.7017564
2,6, 1, 6, 0,19, 0.00,60.00,Friday
213,218948988.9784777
5925,218948988.97847807
2,6, 1, 6, 0,20, 0.00,60.00,Friday
213,227192129.17712182
5925,227192129.17712215
2,6, 1, 6, 0,21, 0.00,60.00,Friday
213,211206682.42464843
5925,211206682.42464876
2,6, 1, 6, 0,22, 0.00,60.00,Friday
213,185683529.9048941
5925,185683529.90489426
2,6, 1, 6, 0,23, 0.00,60.00,Friday
213,172518447.49730262
5925,172518447.49730262
2,6, 1, 6, 0,24, 0.00,60.00,Friday
213,124368489.36650482
5925,124368489.36650482
2,7, 1, 7, 0, 1, 0.00,60.00,Saturday
213,107295457.55700503
5925,107295457.557005
2,7, 1, 7, 0, 2, 0.00,60.00,Saturday
213,96655892.47200438
5925,96655892.47200437
2,7, 1, 7, 0, 3, 0.00,60.00,Saturday
213,102037823.20587976
5925,102037823.20587978
2,7, 1, 7, 0, 4, 0.00,60.00,Saturday
213,95536445.41427599
5925,95536445.41427599
2,7, 1, 7, 0, 5, 0.00,60.00,Saturday
213,92699603.55691719
5925,92699603.55691719
2,7, 1, 7, 0, 6, 0.00,60.00,Saturday
213,142772854.16255224
5925,142772854.16255227
2,7, 1, 7, 0, 7, 0.00,60.00,Saturday
213,188838027.47460192
5925,188838027.47460192
2,7, 1, 7, 0, 8, 0.00,60.00,Saturday
213,206487754.44183236
5925,206487754.4418324
2,7, 1, 7, 0, 9, 0.00,60.00,Saturday
213,176552043.52672172
5925,176552043.52672172
2,7, 1, 7, 0,10, 0.00,60.00,Saturday
213,171424653.4173717
5925,171424653.41737166
2,7, 1, 7, 0,11, 0.00,60.00,Saturday
213,144019436.76410818
5925,144019436.76410815
2,7, 1, 7, 0,12, 0.00,60.00,Saturday
213,141635063.069264
5925,141635063.069264
2,7, 1, 7, 0,13, 0.00,60.00,Saturday
213,125047196.63186093
5925,125047196.63186091
2,7, 1, 7, 0,14, 0.00,60.00,Saturday
213,126846480.45940402
5925,126846480.459404
2,7, 1, 7, 0,15, 0.00,60.00,Saturday
213,104787848.93547384
5925,104787848.93547383
2,7, 1, 7, 0,16, 0.00,60.00,Saturday
213,130336267.18946199
5925,130336267.18946199
2,7, 1, 7, 0,17, 0.00,60.00,Saturday
213,156166708.79714838
5925,156166708.7971484
2,7, 1, 7, 0,18, 0.00,60.00,Saturday
213,194606767.3294981
5925,194606767.3294984
2,7, 1, 7, 0,19, 0.00,60.00,Saturday
213,234105709.9529126
5925,234105709.95291287
2,7, 1, 7, 0,20, 0.00,60.00,Saturday
213,213240896.00738984
5925,213240896.00739017
2,7, 1, 7, 0,21, 0.00,60.00,Saturday
213,227041074.90942094
5925,227041074.90942127
2,7, 1, 7, 0,22, 0.00,60.00,Saturday
213,190175443.54400787
5925,190175443.54400808
2,7, 1, 7, 0,23, 0.00,60.00,Saturday
213,162654157.05831102
5925,162654157.058311
2,7, 1, 7, 0,24, 0.00,60.00,Saturday
213,131869123.2250044
5925,131869123.22500442
2,8, 1, 8, 0, 1, 0.00,60.00,Sunday
213,97278999.83640507
5925,97278999.83640504
2,8, 1, 8, 0, 2, 0.00,60.00,Sunday
213,108618878.25017588
5925,108618878.2501759
2,8, 1, 8, 0, 3, 0.00,60.00,Sunday
213,88144324.0862701
5925,88144324.08627011
2,8, 1, 8, 0, 4, 0.00,60.00,Sunday
213,88005641.21299669
5925,88005641.21299669
2,8, 1, 8, 0, 5, 0.00,60.00,Sunday
213,112209404.9546501
5925,112209404.9546501
2,8, 1, 8, 0, 6, 0.00,60.00,Sunday
213,132147725.5452107
5925,132147725.5452107
2,8, 1, 8, 0, 7, 0.00,60.00,Sunday
213,198174890.28467897
5925,198174890.28467894
2,8, 1, 8, 0, 8, 0.00,60.00,Sunday
213,197405716.95106122
5925,197405716.95106125
2,8, 1, 8, 0, 9, 0.00,60.00,Sunday
213,185122831.10042948
5925,185122831.10042945
2,8, 1, 8, 0,10, 0.00,60.00,Sunday
213,161340090.40294054
5925,161340090.40294054
2,8, 1, 8, 0,11, 0.00,60.00,Sunday
213,148035538.96434456
5925,148035538.96434456
2,8, 1, 8, 0,12, 0.00,60.00,Sunday
213,133435401.39239162
5925,133435401.39239162
2,8, 1, 8, 0,13, 0.00,60.00,Sunday
213,133401727.55303094
5925,133401727.55303094
2,8, 1, 8, 0,14, 0.00,60.00,Sunday
213,116580019.39912176
5925,116580019.39912179
2,8, 1, 8, 0,15, 0.00,60.00,Sunday
213,124433965.853928
5925,124433965.853928
2,8, 1, 8, 0,16, 0.00,60.00,Sunday
213,121557829.5626805
5925,121557829.56268051
2,8, 1, 8, 0,17, 0.00,60.00,Sunday
213,148612759.61085233
5925,148612759.61085233
2,8, 1, 8, 0,18, 0.00,60.00,Sunday
213,202441747.64405388
5925,202441747.6440542
2,8, 1, 8, 0,19, 0.00,60.00,Sunday
213,217842327.52509865
5925,217842327.52509898
2,8, 1, 8, 0,20, 0.00,60.00,Sunday
213,229788804.9513634
5925,229788804.95136374
2,8, 1, 8, 0,21, 0.00,60.00,Sunday
213,207018163.4768229
5925,207018163.4768232
2,8, 1, 8, 0,22, 0.00,60.00,Sunday
213,192460473.64656934
5925,192460473.64656955
2,8, 1, 8, 0,23, 0.00,60.00,Sunday
213,164243294.96778685
5925,164243294.96778685
2,8, 1, 8, 0,24, 0.00,60.00,Sunday
213,126566293.4785892
5925,126566293.47858919
2,9, 1, 9, 0, 1, 0.00,60.00,Monday
213,108012998.80579236
5925,108012998.80579236
2,9, 1, 9, 0, 2, 0.00,60.00,Monday
213,88983893.32009354
5925,88983893.32009354
2,9, 1, 9, 0, 3, 0.00,60.00,Monday
213,104080454.02639042
5925,104080454.02639042
2,9, 1, 9, 0, 4, 0.00,60.00,Monday
213,90366218.03089665
5925,90366218.03089665
2,9, 1, 9, 0, 5, 0.00,60.00,Monday
213,98917043.30438602
5925,98917043.30438602
2,9, 1, 9, 0, 6, 0.00,60.00,Monday
213,129017598.46691155
5925,129017598.46691155
2,9, 1, 9, 0, 7, 0.00,60.00,Monday
213,202949202.4684329
5925,202949202.46843287
2,9, 1, 9, 0, 8, 0.00,60.00,Monday
213,196354616.4117341
5925,196354616.41173416
2,9, 1, 9, 0, 9, 0.00,60.00,Monday
213,188856404.31684223
5925,188856404.31684223
2,9, 1, 9, 0,10, 0.00,60.00,Monday
213,170367095.79025364
5925,170367095.79025364
2,9, 1, 9, 0,11, 0.00,60.00,Monday
213,151197070.72354364
5925,151197070.72354364
2,9, 1, 9, 0,12, 0.00,60.00,Monday
213,134033502.11469781
5925,134033502.11469783
2,9, 1, 9, 0,13, 0.00,60.00,Monday
213,141553352.25824037
5925,141553352.25824037
2,9, 1, 9, 0,14, 0.00,60.00,Monday
213,135712470.61490616
5925,135712470.61490613
2,9, 1, 9, 0,15, 0.00,60.00,Monday
213,131806959.28715229
5925,131806959.28715228
2,9, 1, 9, 0,16, 0.00,60.00,Monday
213,148743376.93528667
5925,148743376.93528667
2,9, 1, 9, 0,17, 0.00,60.00,Monday
213,155414135.05383992
5925,155414135.05383992
2,9, 1, 9, 0,18, 0.00,60.00,Monday
213,192796859.5968716
5925,192796859.59687197
2,9, 1, 9, 0,19, 0.00,60.00,Monday
213,224989306.1718426
5925,224989306.1718429
2,9, 1, 9, 0,20, 0.00,60.00,Monday
213,219124525.9854282
5925,219124525.9854285
2,9, 1, 9, 0,21, 0.00,60.00,Monday
213,216040532.77530414
5925,216040532.77530444
2,9, 1, 9, 0,22, 0.00,60.00,Monday
213,191287975.1150223
5925,191287975.11502248
2,9, 1, 9, 0,23, 0.00,60.00,Monday
213,161135686.72389016
5925,161135686.72389013
2,9, 1, 9, 0,24, 0.00,60.00,Monday
213,128603280.81033462
5925,128603280.81033465
2,10, 1,10, 0, 1, 0.00,60.00,Tuesday
213,97239451.63575564
5925,97239451.63575563
2,10, 1,10, 0, 2, 0.00,60.00,Tuesday
213,101224584.18311462
5925,101224584.18311462
2,10, 1,10, 0, 3, 0.00,60.00,Tuesday
213,94219907.50387168
5925,94219907.50387168
2,10, 1,10, 0, 4, 0.00,60.00,Tuesday
213,90543313.82813324
5925,90543313.82813323
2,10, 1,10, 0, 5, 0.00,60.00,Tuesday
213,104474867.47055419
5925,104474867.47055419
2,10, 1,10, 0, 6, 0.00,60.00,Tuesday
213,135428735.05733278
5925,135428735.05733278
2,10, 1,10, 0, 7, 0.00,60.00,Tuesday
213,194865435.4447804
5925,194865435.44478038
2,10, 1,10, 0, 8, 0.00,60.00,Tuesday
213,200445664.02699396
5925,200445664.026994
2,10, 1,10, 0, 9, 0.00,60.00,Tuesday
213,187889855.11589503
5925,187889855.11589503
2,10, 1,10, 0,10, 0.00,60.00,Tuesday
213,165288845.27810445
5925,165288845.27810448
2,10, 1,10, 0,11, 0.00,60.00,Tuesday
213,153363568.56901807
5925,153363568.56901804
2,10, 1,10, 0,12, 0.00,60.00,Tuesday
213,137667122.5849287
5925,137667122.5849287
2,10, 1,10, 0,13, 0.00,60.00,Tuesday
213,140822130.6164353
5925,140822130.61643526
2,10, 1,10, 0,14, 0.00,60.00,Tuesday
213,127443615.35369496
5925,127443615.35369495
2,10, 1,10, 0,15, 0.00,60.00,Tuesday
213,142803957.7092429
5925,142803957.70924288
2,10, 1,10, 0,16, 0.00,60.00,Tuesday
213,138424924.4382276
5925,138424924.43822762
2,10, 1,10, 0,17, 0.00,60.00,Tuesday
213,162214290.97846222
5925,162214290.97846225
2,10, 1,10, 0,18, 0.00,60.00,Tuesday
213,193493350.7546769
5925,193493350.75467724
2,10, 1,10, 0,19, 0.00,60.00,Tuesday
213,220202856.51668712
5925,220202856.51668745
2,10, 1,10, 0,20, 0.00,60.00,Tuesday
213,218624435.14480668
5925,218624435.14480698
2,10, 1,10, 0,21, 0.00,60.00,Tuesday
213,210645879.42620218
5925,210645879.42620248
2,10, 1,10, 0,22, 0.00,60.00,Tuesday
213,184703290.67623943
5925,184703290.67623958
2,10, 1,10, 0,23, 0.00,60.00,Tuesday
213,161088004.4518429
5925,161088004.4518429
2,10, 1,10, 0,24, 0.00,60.00,Tuesday
213,118953142.70368178
5925,118953142.70368177
2,11, 1,11, 0, 1, 0.00,60.00,Wednesday
213,98870741.35039409
5925,98870741.35039404
2,11, 1,11, 0, 2, 0.00,60.00,Wednesday
213,87164490.35314068
5925,87164490.35314068
2,11, 1,11, 0, 3, 0.00,60.00,Wednesday
213,90867090.0121741
5925,90867090.01217411
2,11, 1,11, 0, 4, 0.00,60.00,Wednesday
213,86262579.49790098
5925,86262579.49790096
2,11, 1,11, 0, 5, 0.00,60.00,Wednesday
213,90278520.83642378
5925,90278520.83642378
2,11, 1,11, 0, 6, 0.00,60.00,Wednesday
213,126901156.48494117
5925,126901156.48494117
2,11, 1,11, 0, 7, 0.00,60.00,Wednesday
213,187582553.4984543
5925,187582553.49845433
2,11, 1,11, 0, 8, 0.00,60.00,Wednesday
213,191246753.6563629
5925,191246753.65636286
2,11, 1,11, 0, 9, 0.00,60.00,Wednesday
213,180457835.50632942
5925,180457835.50632948
2,11, 1,11, 0,10, 0.00,60.00,Wednesday
213,164563993.00535035
5925,164563993.00535035
2,11, 1,11, 0,11, 0.00,60.00,Wednesday
213,153835649.5638525
5925,153835649.5638525
2,11, 1,11, 0,12, 0.00,60.00,Wednesday
213,143435774.13848957
5925,143435774.13848954
2,11, 1,11, 0,13, 0.00,60.00,Wednesday
213,136120701.571191
5925,136120701.57119104
2,11, 1,11, 0,14, 0.00,60.00,Wednesday
213,127444118.48459388
5925,127444118.48459388
2,11, 1,11, 0,15, 0.00,60.00,Wednesday
213,122313563.98239438
5925,122313563.98239438
2,11, 1,11, 0,16, 0.00,60.00,Wednesday
213,138144170.805515
5925,138144170.805515
2,11, 1,11, 0,17, 0.00,60.00,Wednesday
213,165382681.48268518
5925,165382681.4826854
2,11, 1,11, 0,18, 0.00,60.00,Wednesday
213,200316779.88612732
5925,200316779.88612765
2,11, 1,11, 0,19, 0.00,60.00,Wednesday
213,233964337.01311642
5925,233964337.01311672
2,11, 1,11, 0,20, 0.00,60.00,Wednesday
213,225364445.63243166
5925,225364445.63243198
2,11, 1,11, 0,21, 0.00,60.00,Wednesday
213,220626755.6936908
5925,220626755.6936911
2,11, 1,11, 0,22, 0.00,60.00,Wednesday
213,191669169.64692795
5925,191669169.64692813
2,11, 1,11, 0,23, 0.00,60.00,Wednesday
213,165889912.5977048
5925,165889912.59770474
2,11, 1,11, 0,24, 0.00,60.00,Wednesday
213,129652343.2201499
5925,129652343.22014989
2,12, 1,12, 0, 1, 0.00,60.00,Thursday
213,101193108.26743971
5925,101193108.26743971
2,12, 1,12, 0, 2, 0.00,60.00,Thursday
213,101536438.64119413
5925,101536438.64119413
2,12, 1,12, 0, 3, 0.00,60.00,Thursday
213,94324758.54101875
5925,94324758.54101874
2,12, 1,12, 0, 4, 0.00,60.00,Thursday
213,96279776.83090085
5925,96279776.83090083
2,12, 1,12, 0, 5, 0.00,60.00,Thursday
213,97501976.62986183
5925,97501976.62986182
2,12, 1,12, 0, 6, 0.00,60.00,Thursday
213,131805165.95539875
5925,131805165.95539877
2,12, 1,12, 0, 7, 0.00,60.00,Thursday
213,197578990.42455223
5925,197578990.42455223
2,12, 1,12, 0, 8, 0.00,60.00,Thursday
213,197391851.64979908
5925,197391851.6497991
2,12, 1,12, 0, 9, 0.00,60.00,Thursday
213,189251526.4454623
5925,189251526.4454623
2,12, 1,12, 0,10, 0.00,60.00,Thursday
213,171986107.49079177
5925,171986107.49079177
2,12, 1,12, 0,11, 0.00,60.00,Thursday
213,156622145.5285738
5925,156622145.52857384
2,12, 1,12, 0,12, 0.00,60.00,Thursday
213,148116213.33530426
5925,148116213.33530426
2,12, 1,12, 0,13, 0.00,60.00,Thursday
213,143164170.95780718
5925,143164170.9578072
2,12, 1,12, 0,14, 0.00,60.00,Thursday
213,131213682.75993514
5925,131213682.75993514
2,12, 1,12, 0,15, 0.00,60.00,Thursday
213,126046701.64326645
5925,126046701.64326647
2,12, 1,12, 0,16, 0.00,60.00,Thursday
213,141848784.3086334
5925,141848784.3086334
2,12, 1,12, 0,17, 0.00,60.00,Thursday
213,165127756.0719629
5925,165127756.07196307
2,12, 1,12, 0,18, 0.00,60.00,Thursday
213,209481971.19486642
5925,209481971.19486672
2,12, 1,12, 0,19, 0.00,60.00,Thursday
213,232124756.6461531
5925,232124756.64615345
2,12, 1,12, 0,20, 0.00,60.00,Thursday
213,228312930.58888564
5925,228312930.58888596
2,12, 1,12, 0,21, 0.00,60.00,Thursday
213,221688263.24401188
5925,221688263.2440122
2,12, 1,12, 0,22, 0.00,60.00,Thursday
213,195309434.87120318
5925,195309434.87120333
2,12, 1,12, 0,23, 0.00,60.00,Thursday
213,167064052.4072914
5925,167064052.4072914
2,12, 1,12, 0,24, 0.00,60.00,Thursday
213,130959861.77544226
5925,130959861.77544227
2,13, 1,13, 0, 1, 0.00,60.00,Friday
213,105421129.77650943
5925,105421129.77650943
2,13, 1,13, 0, 2, 0.00,60.00,Friday
213,98648453.7318491
5925,98648453.73184913
2,13, 1,13, 0, 3, 0.00,60.00,Friday
213,100952679.45374832
5925,100952679.45374832
2,13, 1,13, 0, 4, 0.00,60.00,Friday
213,96098060.78602904
5925,96098060.78602904
2,13, 1,13, 0, 5, 0.00,60.00,Friday
213,101378555.55060957
5925,101378555.55060954
2,13, 1,13, 0, 6, 0.00,60.00,Friday
213,132822578.51176904
5925,132822578.51176904
2,13, 1,13, 0, 7, 0.00,60.00,Friday
213,198351156.18644637
5925,198351156.18644637
2,13, 1,13, 0, 8, 0.00,60.00,Friday
213,199009197.30451423
5925,199009197.30451432
2,13, 1,13, 0, 9, 0.00,60.00,Friday
213,189029832.88872537
5925,189029832.88872537
2,13, 1,13, 0,10, 0.00,60.00,Friday
213,170597576.28573653
5925,170597576.28573653
2,13, 1,13, 0,11, 0.00,60.00,Friday
213,159789592.97815055
5925,159789592.97815055
2,13, 1,13, 0,12, 0.00,60.00,Friday
213,148684891.87100276
5925,148684891.87100276
2,13, 1,13, 0,13, 0.00,60.00,Friday
213,138678105.65191945
5925,138678105.65191945
2,13, 1,13, 0,14, 0.00,60.00,Friday
213,135135899.49659422
5925,135135899.4965942
2,13, 1,13, 0,15, 0.00,60.00,Friday
213,128959049.25836433
5925,128959049.25836435
2,13, 1,13, 0,16, 0.00,60.00,Friday
213,134646180.51080433
5925,134646180.51080433
2,13, 1,13, 0,17, 0.00,60.00,Friday
213,167678378.7325958
5925,167678378.73259598
2,13, 1,13, 0,18, 0.00,60.00,Friday
213,203997395.69895607
5925,203997395.6989564
2,13, 1,13, 0,19, 0.00,60.00,Friday
213,238326506.0378501
5925,238326506.03785044
2,13, 1,13, 0,20, 0.00,60.00,Friday
213,226882668.2842009
5925,226882668.28420126
2,13, 1,13, 0,21, 0.00,60.00,Friday
213,224888922.97320604
5925,224888922.97320634
2,13, 1,13, 0,22, 0.00,60.00,Friday
213,193582719.95675173
5925,193582719.95675194
2,13, 1,13, 0,23, 0.00,60.00,Friday
213,169011952.22090948
5925,169011952.22090945
2,13, 1,13, 0,24, 0.00,60.00,Friday
213,132709000.4164744
5925,132709000.4164744
2,14, 1,14, 0, 1, 0.00,60.00,Saturday
213,104096498.99024323
5925,104096498.99024321
2,14, 1,14, 0, 2, 0.00,60.00,Saturday
213,100772325.91522416
5925,100772325.91522416
2,14, 1,14, 0, 3, 0.00,60.00,Saturday
213,92805857.42179261
5925,92805857.42179263
2,14, 1,14, 0, 4, 0.00,60.00,Saturday
213,101537548.11743678
5925,101537548.11743678
2,14, 1,14, 0, 5, 0.00,60.00,Saturday
213,100443062.96937494
5925,100443062.96937492
2,14, 1,14, 0, 6, 0.00,60.00,Saturday
213,133252704.36400455
5925,133252704.36400454
2,14, 1,14, 0, 7, 0.00,60.00,Saturday
213,198603420.78714317
5925,198603420.78714317
2,14, 1,14, 0, 8, 0.00,60.00,Saturday
213,200660795.1182543
5925,200660795.1182543
2,14, 1,14, 0, 9, 0.00,60.00,Saturday
213,183135592.40227124
5925,183135592.40227127
2,14, 1,14, 0,10, 0.00,60.00,Saturday
213,170464808.83656055
5925,170464808.8365605
2,14, 1,14, 0,11, 0.00,60.00,Saturday
213,151365541.49707648
5925,151365541.49707648
2,14, 1,14, 0,12, 0.00,60.00,Saturday
213,147359930.76843694
5925,147359930.76843694
2,14, 1,14, 0,13, 0.00,60.00,Saturday
213,140378764.76038688
5925,140378764.7603869
2,14, 1,14, 0,14, 0.00,60.00,Saturday
213,129730532.61875084
5925,129730532.61875081
2,14, 1,14, 0,15, 0.00,60.00,Saturday
213,125730849.27068105
5925,125730849.27068104
2,14, 1,14, 0,16, 0.00,60.00,Saturday
213,138767364.9735606
5925,138767364.97356063
2,14, 1,14, 0,17, 0.00,60.00,Saturday
213,161882985.49370414
5925,161882985.49370435
2,14, 1,14, 0,18, 0.00,60.00,Saturday
213,207478860.19467694
5925,207478860.19467726
2,14, 1,14, 0,19, 0.00,60.00,Saturday
213,237833648.23662826
5925,237833648.2366286
2,14, 1,14, 0,20, 0.00,60.00,Saturday
213,226689767.3038953
5925,226689767.30389565
2,14, 1,14, 0,21, 0.00,60.00,Saturday
213,226779545.01600158
5925,226779545.01600188
2,14, 1,14, 0,22, 0.00,60.00,Saturday
213,197362867.16180965
5925,197362867.16180986
2,14, 1,14, 0,23, 0.00,60.00,Saturday
213,168220922.37455755
5925,168220922.37455755
2,14, 1,14, 0,24, 0.00,60.00,Saturday
213,129236474.85114822
5925,129236474.85114822
2,15, 1,15, 0, 1, 0.00,60.00,Sunday
213,101956191.99464965
5925,101956191.99464963
2,15, 1,15, 0, 2, 0.00,60.00,Sunday
213,103093858.13469207
5925,103093858.13469207
2,15, 1,15, 0, 3, 0.00,60.00,Sunday
213,93978578.18671016
5925,93978578.18671018
2,15, 1,15, 0, 4, 0.00,60.00,Sunday
213,96389066.13261035
5925,96389066.13261035
2,15, 1,15, 0, 5, 0.00,60.00,Sunday
213,102082803.23113142
5925,102082803.2311314
2,15, 1,15, 0, 6, 0.00,60.00,Sunday
213,131116667.20915021
5925,131116667.20915024
2,15, 1,15, 0, 7, 0.00,60.00,Sunday
213,196908810.0739403
5925,196908810.07394037
2,15, 1,15, 0, 8, 0.00,60.00,Sunday
213,201392827.5233677
5925,201392827.52336773
2,15, 1,15, 0, 9, 0.00,60.00,Sunday
213,183165580.59994882
5925,183165580.59994876
2,15, 1,15, 0,10, 0.00,60.00,Sunday
213,171888988.60159567
5925,171888988.60159567
2,15, 1,15, 0,11, 0.00,60.00,Sunday
213,153902600.0362616
5925,153902600.0362616
2,15, 1,15, 0,12, 0.00,60.00,Sunday
213,148418730.5841493
5925,148418730.5841493
2,15, 1,15, 0,13, 0.00,60.00,Sunday
213,139715513.80308956
5925,139715513.80308956
2,15, 1,15, 0,14, 0.00,60.00,Sunday
213,128309115.8281394
5925,128309115.82813942
2,15, 1,15, 0,15, 0.00,60.00,Sunday
213,132673004.17552009
5925,132673004.17552009
2,15, 1,15, 0,16, 0.00,60.00,Sunday
213,136541904.17279133
5925,136541904.17279133
2,15, 1,15, 0,17, 0.00,60.00,Sunday
213,161190547.53405952
5925,161190547.5340597