Program Version,EnergyPlus, Version 26.1.0-6f2e40d102, YMD=2026.04.14 20:35
1,5,Environment Title[],Latitude[deg],Longitude[deg],Time Zone[],Elevation[m]
2,8,Day of Simulation[],Month[],Day of Month[],DST Indicator[1=yes 0=no],Hour[],StartMinute[],EndMinute[],DayType
3,5,Cumulative Day of Simulation[],Month[],Day of Month[],DST Indicator[1=yes 0=no],DayType  ! When Daily Meters Requested
4,2,Cumulative Days of Simulation[],Month[]  ! When Monthly Meters Requested
5,1,Cumulative Days of Simulation[] ! When Run Period Meters Requested
6,1,Calendar Year of Simulation[] ! When Annual Meters Requested
213,1,Electricity:Facility [J] !Hourly
6085,1,ElectricityNet:Facility [J] !Hourly
End of Data Dictionary
1,RUNPERIOD 1,  28.11, 112.79,   8.00, 120.00
2,1, 1, 1, 0, 1, 0.00,60.00,Holiday
213,277708136.48239905
6085,277708136.482399
2,1, 1, 1, 0, 2, 0.00,60.00,Holiday
213,266143467.50212252
6085,266143467.50212252
2,1, 1, 1, 0, 3, 0.00,60.00,Holiday
213,264957345.2743587
6085,264957345.2743587
2,1, 1, 1, 0, 4, 0.00,60.00,Holiday
213,264487035.60493731
6085,264487035.60493723
2,1, 1, 1, 0, 5, 0.00,60.00,Holiday
213,267521339.91124067
6085,267521339.91124055
2,1, 1, 1, 0, 6, 0.00,60.00,Holiday
213,282862114.99875677
6085,282862114.99875665
2,1, 1, 1, 0, 7, 0.00,60.00,Holiday
213,303666012.2562926
6085,303666012.2562924
2,1, 1, 1, 0, 8, 0.00,60.00,Holiday
213,300606939.6984882
6085,300606939.69848794
2,1, 1, 1, 0, 9, 0.00,60.00,Holiday
213,292292702.9950669
6085,292292702.9950666
2,1, 1, 1, 0,10, 0.00,60.00,Holiday
213,286698681.7627562
6085,286698681.76275605
2,1, 1, 1, 0,11, 0.00,60.00,Holiday
213,275269977.78502953
6085,275269977.78502935
2,1, 1, 1, 0,12, 0.00,60.00,Holiday
213,287322447.28296703
6085,287322447.2829668
2,1, 1, 1, 0,13, 0.00,60.00,Holiday
213,287160421.7254445
6085,287160421.72544426
2,1, 1, 1, 0,14, 0.00,60.00,Holiday
213,277461074.9862648
6085,277461074.9862647
2,1, 1, 1, 0,15, 0.00,60.00,Holiday
213,285020297.65409786
6085,285020297.6540977
2,1, 1, 1, 0,16, 0.00,60.00,Holiday
213,297465048.109458
6085,297465048.10945785
2,1, 1, 1, 0,17, 0.00,60.00,Holiday
213,318878441.85529417
6085,318878441.8552943
2,1, 1, 1, 0,18, 0.00,60.00,Holiday
213,373080386.212824
6085,373080386.2128244
2,1, 1, 1, 0,19, 0.00,60.00,Holiday
213,388636542.74886614
6085,388636542.7488666
2,1, 1, 1, 0,20, 0.00,60.00,Holiday
213,375622397.6718712
6085,375622397.6718716
2,1, 1, 1, 0,21, 0.00,60.00,Holiday
213,370380123.2265865
6085,370380123.22658706
2,1, 1, 1, 0,22, 0.00,60.00,Holiday
213,351914872.87450284
6085,351914872.87450296
2,1, 1, 1, 0,23, 0.00,60.00,Holiday
213,320010668.5787924
6085,320010668.5787922
2,1, 1, 1, 0,24, 0.00,60.00,Holiday
213,300301085.4312986
6085,300301085.4312984
2,2, 1, 2, 0, 1, 0.00,60.00,Monday
213,282884851.8787043
6085,282884851.87870437
2,2, 1, 2, 0, 2, 0.00,60.00,Monday
213,273665751.45094156
6085,273665751.4509415
2,2, 1, 2, 0, 3, 0.00,60.00,Monday
213,270836207.4764546
6085,270836207.47645444
2,2, 1, 2, 0, 4, 0.00,60.00,Monday
213,270211326.70052433
6085,270211326.7005243
2,2, 1, 2, 0, 5, 0.00,60.00,Monday
213,273686849.5068574
6085,273686849.5068574
2,2, 1, 2, 0, 6, 0.00,60.00,Monday
213,289323817.5254715
6085,289323817.5254713
2,2, 1, 2, 0, 7, 0.00,60.00,Monday
213,314731501.11275834
6085,314731501.11275816
2,2, 1, 2, 0, 8, 0.00,60.00,Monday
213,313716229.6123773
6085,313716229.6123771
2,2, 1, 2, 0, 9, 0.00,60.00,Monday
213,311194736.5863971
6085,311194736.586397
2,2, 1, 2, 0,10, 0.00,60.00,Monday
213,305505661.8665856
6085,305505661.8665854
2,2, 1, 2, 0,11, 0.00,60.00,Monday
213,296505343.5929305
6085,296505343.59293026
2,2, 1, 2, 0,12, 0.00,60.00,Monday
213,298876848.86815494
6085,298876848.86815476
2,2, 1, 2, 0,13, 0.00,60.00,Monday
213,296628062.29471695
6085,296628062.2947168
2,2, 1, 2, 0,14, 0.00,60.00,Monday
213,295163819.9557836
6085,295163819.9557835
2,2, 1, 2, 0,15, 0.00,60.00,Monday
213,290358680.5930367
6085,290358680.59303653
2,2, 1, 2, 0,16, 0.00,60.00,Monday
213,295915136.3494998
6085,295915136.34949964
2,2, 1, 2, 0,17, 0.00,60.00,Monday
213,330063729.4992854
6085,330063729.4992856
2,2, 1, 2, 0,18, 0.00,60.00,Monday
213,377785191.9072498
6085,377785191.90725034
2,2, 1, 2, 0,19, 0.00,60.00,Monday
213,396298007.8894708
6085,396298007.8894714
2,2, 1, 2, 0,20, 0.00,60.00,Monday
213,386999373.19935
6085,386999373.1993505
2,2, 1, 2, 0,21, 0.00,60.00,Monday
213,379687219.08722746
6085,379687219.0872279
2,2, 1, 2, 0,22, 0.00,60.00,Monday
213,359219370.2146708
6085,359219370.21467096
2,2, 1, 2, 0,23, 0.00,60.00,Monday
213,327690424.1755039
6085,327690424.17550355
2,2, 1, 2, 0,24, 0.00,60.00,Monday
213,308023700.3738729
6085,308023700.37387264
2,3, 1, 3, 0, 1, 0.00,60.00,Tuesday
213,290780769.96834004
6085,290780769.96834004
2,3, 1, 3, 0, 2, 0.00,60.00,Tuesday
213,282503576.52687514
6085,282503576.526875
2,3, 1, 3, 0, 3, 0.00,60.00,Tuesday
213,280353823.6639831
6085,280353823.66398305
2,3, 1, 3, 0, 4, 0.00,60.00,Tuesday
213,279592941.3466441
6085,279592941.34664404
2,3, 1, 3, 0, 5, 0.00,60.00,Tuesday
213,283039827.3896106
6085,283039827.3896104
2,3, 1, 3, 0, 6, 0.00,60.00,Tuesday
213,304172243.8219983
6085,304172243.8219981
2,3, 1, 3, 0, 7, 0.00,60.00,Tuesday
213,326746445.56197095
6085,326746445.5619707
2,3, 1, 3, 0, 8, 0.00,60.00,Tuesday
213,321890451.1186902
6085,321890451.11869
2,3, 1, 3, 0, 9, 0.00,60.00,Tuesday
213,319291066.5162371
6085,319291066.5162369
2,3, 1, 3, 0,10, 0.00,60.00,Tuesday
213,311208953.661159
6085,311208953.66115874
2,3, 1, 3, 0,11, 0.00,60.00,Tuesday
213,303360496.1470737
6085,303360496.1470735
2,3, 1, 3, 0,12, 0.00,60.00,Tuesday
213,305904120.36568743
6085,305904120.36568725
2,3, 1, 3, 0,13, 0.00,60.00,Tuesday
213,301820072.27281135
6085,301820072.27281123
2,3, 1, 3, 0,14, 0.00,60.00,Tuesday
213,300190290.1962843
6085,300190290.1962841
2,3, 1, 3, 0,15, 0.00,60.00,Tuesday
213,299215075.18006074
6085,299215075.1800606
2,3, 1, 3, 0,16, 0.00,60.00,Tuesday
213,307485654.49627537
6085,307485654.4962751
2,3, 1, 3, 0,17, 0.00,60.00,Tuesday
213,341847138.3317616
6085,341847138.3317617
2,3, 1, 3, 0,18, 0.00,60.00,Tuesday
213,389519087.1258843
6085,389519087.12588465
2,3, 1, 3, 0,19, 0.00,60.00,Tuesday
213,404410792.3409608
6085,404410792.3409612
2,3, 1, 3, 0,20, 0.00,60.00,Tuesday
213,392195503.6326508
6085,392195503.6326512
2,3, 1, 3, 0,21, 0.00,60.00,Tuesday
213,384868293.151044
6085,384868293.1510445
2,3, 1, 3, 0,22, 0.00,60.00,Tuesday
213,363359240.62047046
6085,363359240.6204706
2,3, 1, 3, 0,23, 0.00,60.00,Tuesday
213,330060307.1539161
6085,330060307.1539159
2,3, 1, 3, 0,24, 0.00,60.00,Tuesday
213,303936535.755163
6085,303936535.7551628
2,4, 1, 4, 0, 1, 0.00,60.00,Wednesday
213,286731005.1293818
6085,286731005.1293817
2,4, 1, 4, 0, 2, 0.00,60.00,Wednesday
213,283050995.108559
6085,283050995.108559
2,4, 1, 4, 0, 3, 0.00,60.00,Wednesday
213,287113219.75111
6085,287113219.75111
2,4, 1, 4, 0, 4, 0.00,60.00,Wednesday
213,286301377.6302966
6085,286301377.63029647
2,4, 1, 4, 0, 5, 0.00,60.00,Wednesday
213,285547520.65801954
6085,285547520.65801954
2,4, 1, 4, 0, 6, 0.00,60.00,Wednesday
213,303625082.18532944
6085,303625082.1853292
2,4, 1, 4, 0, 7, 0.00,60.00,Wednesday
213,324752379.26103383
6085,324752379.2610336
2,4, 1, 4, 0, 8, 0.00,60.00,Wednesday
213,322741013.95599926
6085,322741013.9559991
2,4, 1, 4, 0, 9, 0.00,60.00,Wednesday
213,322339369.7856043
6085,322339369.78560406
2,4, 1, 4, 0,10, 0.00,60.00,Wednesday
213,313080058.28911173
6085,313080058.28911155
2,4, 1, 4, 0,11, 0.00,60.00,Wednesday
213,297198971.3271847
6085,297198971.32718444
2,4, 1, 4, 0,12, 0.00,60.00,Wednesday
213,286687195.3735916
6085,286687195.3735914
2,4, 1, 4, 0,13, 0.00,60.00,Wednesday
213,275847148.20136523
6085,275847148.201365
2,4, 1, 4, 0,14, 0.00,60.00,Wednesday
213,272549747.54269075
6085,272549747.5426905
2,4, 1, 4, 0,15, 0.00,60.00,Wednesday
213,277017074.4654771
6085,277017074.465477
2,4, 1, 4, 0,16, 0.00,60.00,Wednesday
213,285164339.16675097
6085,285164339.1667507
2,4, 1, 4, 0,17, 0.00,60.00,Wednesday
213,315755796.6108586
6085,315755796.6108588
2,4, 1, 4, 0,18, 0.00,60.00,Wednesday
213,370216641.0379475
6085,370216641.03794795
2,4, 1, 4, 0,19, 0.00,60.00,Wednesday
213,386114526.2830845
6085,386114526.283085
2,4, 1, 4, 0,20, 0.00,60.00,Wednesday
213,369446815.01856005
6085,369446815.01856047
2,4, 1, 4, 0,21, 0.00,60.00,Wednesday
213,370043330.59277
6085,370043330.59277034
2,4, 1, 4, 0,22, 0.00,60.00,Wednesday
213,351447737.81680554
6085,351447737.8168057
2,4, 1, 4, 0,23, 0.00,60.00,Wednesday
213,314604921.96325636
6085,314604921.9632561
2,4, 1, 4, 0,24, 0.00,60.00,Wednesday
213,294761778.1575056
6085,294761778.1575054
2,5, 1, 5, 0, 1, 0.00,60.00,Thursday
213,277958655.828628
6085,277958655.828628
2,5, 1, 5, 0, 2, 0.00,60.00,Thursday
213,268844926.5287752
6085,268844926.5287751
2,5, 1, 5, 0, 3, 0.00,60.00,Thursday
213,269929881.15680355
6085,269929881.1568034
2,5, 1, 5, 0, 4, 0.00,60.00,Thursday
213,268015476.23046625
6085,268015476.2304662
2,5, 1, 5, 0, 5, 0.00,60.00,Thursday
213,266713443.52742997
6085,266713443.5274299
2,5, 1, 5, 0, 6, 0.00,60.00,Thursday
213,288982909.07879394
6085,288982909.07879376
2,5, 1, 5, 0, 7, 0.00,60.00,Thursday
213,316631711.47900385
6085,316631711.47900367
2,5, 1, 5, 0, 8, 0.00,60.00,Thursday
213,314074657.96381336
6085,314074657.9638132
2,5, 1, 5, 0, 9, 0.00,60.00,Thursday
213,302876091.9538014
6085,302876091.9538011
2,5, 1, 5, 0,10, 0.00,60.00,Thursday
213,278607991.73809266
6085,278607991.7380925
2,5, 1, 5, 0,11, 0.00,60.00,Thursday
213,254827103.11828557
6085,254827103.11828536
2,5, 1, 5, 0,12, 0.00,60.00,Thursday
213,246751089.01536825
6085,246751089.01536804
2,5, 1, 5, 0,13, 0.00,60.00,Thursday
213,237109209.13061672
6085,237109209.13061658
2,5, 1, 5, 0,14, 0.00,60.00,Thursday
213,227590989.25542575
6085,227590989.25542557
2,5, 1, 5, 0,15, 0.00,60.00,Thursday
213,214258081.16440335
6085,214258081.16440317
2,5, 1, 5, 0,16, 0.00,60.00,Thursday
213,215325906.3870628
6085,215325906.3870626
2,5, 1, 5, 0,17, 0.00,60.00,Thursday
213,253927855.11569193
6085,253927855.11569208
2,5, 1, 5, 0,18, 0.00,60.00,Thursday
213,320950781.84918153
6085,320950781.849182
2,5, 1, 5, 0,19, 0.00,60.00,Thursday
213,349215535.15381825
6085,349215535.1538187
2,5, 1, 5, 0,20, 0.00,60.00,Thursday
213,341506747.9275463
6085,341506747.92754686
2,5, 1, 5, 0,21, 0.00,60.00,Thursday
213,339640187.38665223
6085,339640187.38665265
2,5, 1, 5, 0,22, 0.00,60.00,Thursday
213,322271600.4709151
6085,322271600.4709152
2,5, 1, 5, 0,23, 0.00,60.00,Thursday
213,290275473.4822683
6085,290275473.48226804
2,5, 1, 5, 0,24, 0.00,60.00,Thursday
213,264083979.614282
6085,264083979.61428183
2,6, 1, 6, 0, 1, 0.00,60.00,Friday
213,246994797.3774948
6085,246994797.3774948
2,6, 1, 6, 0, 2, 0.00,60.00,Friday
213,244877346.38548777
6085,244877346.3854877
2,6, 1, 6, 0, 3, 0.00,60.00,Friday
213,244595120.3277259
6085,244595120.3277258
2,6, 1, 6, 0, 4, 0.00,60.00,Friday
213,244878156.76688915
6085,244878156.76688904
2,6, 1, 6, 0, 5, 0.00,60.00,Friday
213,248143070.87545505
6085,248143070.87545493
2,6, 1, 6, 0, 6, 0.00,60.00,Friday
213,263670214.28167176
6085,263670214.28167152
2,6, 1, 6, 0, 7, 0.00,60.00,Friday
213,286968576.3762245
6085,286968576.3762244
2,6, 1, 6, 0, 8, 0.00,60.00,Friday
213,286341713.9647681
6085,286341713.964768
2,6, 1, 6, 0, 9, 0.00,60.00,Friday
213,272280227.60238963
6085,272280227.60238945
2,6, 1, 6, 0,10, 0.00,60.00,Friday
213,239291119.7448962
6085,239291119.74489605
2,6, 1, 6, 0,11, 0.00,60.00,Friday
213,207154552.07781845
6085,207154552.07781824
2,6, 1, 6, 0,12, 0.00,60.00,Friday
213,203087117.76959598
6085,203087117.7695958
2,6, 1, 6, 0,13, 0.00,60.00,Friday
213,198179983.34678686
6085,198179983.34678668
2,6, 1, 6, 0,14, 0.00,60.00,Friday
213,193473007.36698288
6085,193473007.3669827
2,6, 1, 6, 0,15, 0.00,60.00,Friday
213,186680165.47016734
6085,186680165.47016713
2,6, 1, 6, 0,16, 0.00,60.00,Friday
213,191893617.32332864
6085,191893617.32332844
2,6, 1, 6, 0,17, 0.00,60.00,Friday
213,227316176.60500318
6085,227316176.60500303
2,6, 1, 6, 0,18, 0.00,60.00,Friday
213,281931930.6283768
6085,281931930.62837726
2,6, 1, 6, 0,19, 0.00,60.00,Friday
213,313930226.20609486
6085,313930226.20609534
2,6, 1, 6, 0,20, 0.00,60.00,Friday
213,305000878.85770047
6085,305000878.8577009
2,6, 1, 6, 0,21, 0.00,60.00,Friday
213,302123947.4255061
6085,302123947.4255066
2,6, 1, 6, 0,22, 0.00,60.00,Friday
213,289389975.95434034
6085,289389975.95434046
2,6, 1, 6, 0,23, 0.00,60.00,Friday
213,264715031.2842131
6085,264715031.28421295
2,6, 1, 6, 0,24, 0.00,60.00,Friday
213,249694738.42454508
6085,249694738.42454487
2,7, 1, 7, 0, 1, 0.00,60.00,Saturday
213,244573427.92435387
6085,244573427.9243539
2,7, 1, 7, 0, 2, 0.00,60.00,Saturday
213,250434377.1071032
6085,250434377.1071031
2,7, 1, 7, 0, 3, 0.00,60.00,Saturday
213,253145173.31567913
6085,253145173.31567904
2,7, 1, 7, 0, 4, 0.00,60.00,Saturday
213,254522932.86795977
6085,254522932.86795974
2,7, 1, 7, 0, 5, 0.00,60.00,Saturday
213,260081772.97947058
6085,260081772.97947058
2,7, 1, 7, 0, 6, 0.00,60.00,Saturday
213,279922785.72821534
6085,279922785.7282152
2,7, 1, 7, 0, 7, 0.00,60.00,Saturday
213,304873580.27056855
6085,304873580.2705683
2,7, 1, 7, 0, 8, 0.00,60.00,Saturday
213,302875037.19356084
6085,302875037.19356066
2,7, 1, 7, 0, 9, 0.00,60.00,Saturday
213,278091144.6863861
6085,278091144.68638587
2,7, 1, 7, 0,10, 0.00,60.00,Saturday
213,249317802.8213733
6085,249317802.82137316
2,7, 1, 7, 0,11, 0.00,60.00,Saturday
213,220450207.24862832
6085,220450207.24862814
2,7, 1, 7, 0,12, 0.00,60.00,Saturday
213,207509652.93891054
6085,207509652.93891042
2,7, 1, 7, 0,13, 0.00,60.00,Saturday
213,202182785.98794326
6085,202182785.98794308
2,7, 1, 7, 0,14, 0.00,60.00,Saturday
213,195771084.2294574
6085,195771084.22945723
2,7, 1, 7, 0,15, 0.00,60.00,Saturday
213,190083053.26417708
6085,190083053.26417688
2,7, 1, 7, 0,16, 0.00,60.00,Saturday
213,195439671.92944747
6085,195439671.92944726
2,7, 1, 7, 0,17, 0.00,60.00,Saturday
213,233655617.17450064
6085,233655617.17450052
2,7, 1, 7, 0,18, 0.00,60.00,Saturday
213,292935004.2237482
6085,292935004.2237486
2,7, 1, 7, 0,19, 0.00,60.00,Saturday
213,320825206.3655567
6085,320825206.3655572
2,7, 1, 7, 0,20, 0.00,60.00,Saturday
213,313406656.3925321
6085,313406656.39253265
2,7, 1, 7, 0,21, 0.00,60.00,Saturday
213,313545243.8030389
6085,313545243.8030394
2,7, 1, 7, 0,22, 0.00,60.00,Saturday
213,300498754.8843753
6085,300498754.8843756
2,7, 1, 7, 0,23, 0.00,60.00,Saturday
213,275873926.2758273
6085,275873926.27582717
2,7, 1, 7, 0,24, 0.00,60.00,Saturday
213,255704295.47767946
6085,255704295.47767928
2,8, 1, 8, 0, 1, 0.00,60.00,Sunday
213,243655289.86010092
6085,243655289.86010095
2,8, 1, 8, 0, 2, 0.00,60.00,Sunday
213,245590886.91631523
6085,245590886.9163152
2,8, 1, 8, 0, 3, 0.00,60.00,Sunday
213,249695072.0613735
6085,249695072.06137344
2,8, 1, 8, 0, 4, 0.00,60.00,Sunday
213,252596332.8314262
6085,252596332.8314261
2,8, 1, 8, 0, 5, 0.00,60.00,Sunday
213,258112717.5987674
6085,258112717.5987673
2,8, 1, 8, 0, 6, 0.00,60.00,Sunday
213,275506745.5631322
6085,275506745.56313205
2,8, 1, 8, 0, 7, 0.00,60.00,Sunday
213,301616671.27232146
6085,301616671.2723214
2,8, 1, 8, 0, 8, 0.00,60.00,Sunday
213,303668535.71190286
6085,303668535.7119027
2,8, 1, 8, 0, 9, 0.00,60.00,Sunday
213,274973548.0981992
6085,274973548.09819895
2,8, 1, 8, 0,10, 0.00,60.00,Sunday
213,237801594.5659973
6085,237801594.56599715
2,8, 1, 8, 0,11, 0.00,60.00,Sunday
213,209649562.351594
6085,209649562.35159382
2,8, 1, 8, 0,12, 0.00,60.00,Sunday
213,201025304.36787295
6085,201025304.36787271
2,8, 1, 8, 0,13, 0.00,60.00,Sunday
213,198069787.58770368
6085,198069787.5877035
2,8, 1, 8, 0,14, 0.00,60.00,Sunday
213,191560802.3506667
6085,191560802.3506665
2,8, 1, 8, 0,15, 0.00,60.00,Sunday
213,186855352.3842981
6085,186855352.3842979
2,8, 1, 8, 0,16, 0.00,60.00,Sunday
213,190894065.64185888
6085,190894065.64185867
2,8, 1, 8, 0,17, 0.00,60.00,Sunday
213,226448464.86693594
6085,226448464.8669358
2,8, 1, 8, 0,18, 0.00,60.00,Sunday
213,281474263.98988104
6085,281474263.9898815
2,8, 1, 8, 0,19, 0.00,60.00,Sunday
213,309408049.25917923
6085,309408049.2591797
2,8, 1, 8, 0,20, 0.00,60.00,Sunday
213,300230968.9301716
6085,300230968.9301721
2,8, 1, 8, 0,21, 0.00,60.00,Sunday
213,300339573.1560999
6085,300339573.15610045
2,8, 1, 8, 0,22, 0.00,60.00,Sunday
213,285084904.97379917
6085,285084904.9737993
2,8, 1, 8, 0,23, 0.00,60.00,Sunday
213,255244577.40794998
6085,255244577.40794975
2,8, 1, 8, 0,24, 0.00,60.00,Sunday
213,234788674.86194217
6085,234788674.86194205
2,9, 1, 9, 0, 1, 0.00,60.00,Monday
213,225674184.4596421
6085,225674184.45964208
2,9, 1, 9, 0, 2, 0.00,60.00,Monday
213,234780746.14232835
6085,234780746.1423283
2,9, 1, 9, 0, 3, 0.00,60.00,Monday
213,239364272.9741494
6085,239364272.9741493
2,9, 1, 9, 0, 4, 0.00,60.00,Monday
213,240054858.95908087
6085,240054858.95908076
2,9, 1, 9, 0, 5, 0.00,60.00,Monday
213,251563348.71995294
6085,251563348.71995276
2,9, 1, 9, 0, 6, 0.00,60.00,Monday
213,273296671.7847588
6085,273296671.7847587
2,9, 1, 9, 0, 7, 0.00,60.00,Monday
213,303020932.8825763
6085,303020932.8825761
2,9, 1, 9, 0, 8, 0.00,60.00,Monday
213,305859805.1233088
6085,305859805.12330866
2,9, 1, 9, 0, 9, 0.00,60.00,Monday
213,283479647.2304682
6085,283479647.2304681
2,9, 1, 9, 0,10, 0.00,60.00,Monday
213,242254875.29386795
6085,242254875.29386774
2,9, 1, 9, 0,11, 0.00,60.00,Monday
213,212014080.55821735
6085,212014080.5582172
2,9, 1, 9, 0,12, 0.00,60.00,Monday
213,198827676.05177942
6085,198827676.05177918
2,9, 1, 9, 0,13, 0.00,60.00,Monday
213,190551724.1865639
6085,190551724.18656367
2,9, 1, 9, 0,14, 0.00,60.00,Monday
213,196184647.2802555
6085,196184647.2802553
2,9, 1, 9, 0,15, 0.00,60.00,Monday
213,203703621.57824165
6085,203703621.5782415
2,9, 1, 9, 0,16, 0.00,60.00,Monday
213,212166787.84479725
6085,212166787.84479704
2,9, 1, 9, 0,17, 0.00,60.00,Monday
213,235622601.057145
6085,235622601.0571449
2,9, 1, 9, 0,18, 0.00,60.00,Monday
213,271156380.5523099
6085,271156380.55231035
2,9, 1, 9, 0,19, 0.00,60.00,Monday
213,302632970.2617192
6085,302632970.2617197
2,9, 1, 9, 0,20, 0.00,60.00,Monday
213,295944845.5906545
6085,295944845.590655
2,9, 1, 9, 0,21, 0.00,60.00,Monday
213,296029725.07824963
6085,296029725.07825005
2,9, 1, 9, 0,22, 0.00,60.00,Monday
213,280618976.10674226
6085,280618976.10674244
2,9, 1, 9, 0,23, 0.00,60.00,Monday
213,248373542.21379405
6085,248373542.21379384
2,9, 1, 9, 0,24, 0.00,60.00,Monday
213,232329395.0095236
6085,232329395.00952336
2,10, 1,10, 0, 1, 0.00,60.00,Tuesday
213,226058794.69851005
6085,226058794.69851005
2,10, 1,10, 0, 2, 0.00,60.00,Tuesday
213,228240390.67985943
6085,228240390.6798593
2,10, 1,10, 0, 3, 0.00,60.00,Tuesday
213,231637202.71918887
6085,231637202.71918875
2,10, 1,10, 0, 4, 0.00,60.00,Tuesday
213,235355068.99082837
6085,235355068.99082828
2,10, 1,10, 0, 5, 0.00,60.00,Tuesday
213,243017591.18957588
6085,243017591.1895758
2,10, 1,10, 0, 6, 0.00,60.00,Tuesday
213,264776344.1810121
6085,264776344.18101195
2,10, 1,10, 0, 7, 0.00,60.00,Tuesday
213,294581319.53623015
6085,294581319.53622997
2,10, 1,10, 0, 8, 0.00,60.00,Tuesday
213,298238864.5746174
6085,298238864.5746172
2,10, 1,10, 0, 9, 0.00,60.00,Tuesday
213,280553340.52932394
6085,280553340.5293237
2,10, 1,10, 0,10, 0.00,60.00,Tuesday
213,243786945.36802942
6085,243786945.36802924
2,10, 1,10, 0,11, 0.00,60.00,Tuesday
213,207710844.45948938
6085,207710844.45948923
2,10, 1,10, 0,12, 0.00,60.00,Tuesday
213,195180794.75851047
6085,195180794.7585103
2,10, 1,10, 0,13, 0.00,60.00,Tuesday
213,191365167.13352537
6085,191365167.1335252
2,10, 1,10, 0,14, 0.00,60.00,Tuesday
213,200332954.88008553
6085,200332954.88008538
2,10, 1,10, 0,15, 0.00,60.00,Tuesday
213,202232089.90893856
6085,202232089.9089384
2,10, 1,10, 0,16, 0.00,60.00,Tuesday
213,205692905.10768408
6085,205692905.10768387
2,10, 1,10, 0,17, 0.00,60.00,Tuesday
213,231546568.20724618
6085,231546568.20724604
2,10, 1,10, 0,18, 0.00,60.00,Tuesday
213,269656181.438746
6085,269656181.4387465
2,10, 1,10, 0,19, 0.00,60.00,Tuesday
213,290971197.6417946
6085,290971197.6417951
2,10, 1,10, 0,20, 0.00,60.00,Tuesday
213,280004857.2959591
6085,280004857.2959596
2,10, 1,10, 0,21, 0.00,60.00,Tuesday
213,281669147.1281804
6085,281669147.12818086
2,10, 1,10, 0,22, 0.00,60.00,Tuesday
213,266394144.7391652
6085,266394144.7391654
2,10, 1,10, 0,23, 0.00,60.00,Tuesday
213,233902863.5934419
6085,233902863.59344172
2,10, 1,10, 0,24, 0.00,60.00,Tuesday
213,206527367.69055948
6085,206527367.69055933
2,11, 1,11, 0, 1, 0.00,60.00,Wednesday
213,187616504.04303935
6085,187616504.04303932
2,11, 1,11, 0, 2, 0.00,60.00,Wednesday
213,184056465.87270743
6085,184056465.87270725
2,11, 1,11, 0, 3, 0.00,60.00,Wednesday
213,186659000.70768982
6085,186659000.70768964
2,11, 1,11, 0, 4, 0.00,60.00,Wednesday
213,188568268.67307216
6085,188568268.67307198
2,11, 1,11, 0, 5, 0.00,60.00,Wednesday
213,189734554.39407706
6085,189734554.39407697
2,11, 1,11, 0, 6, 0.00,60.00,Wednesday
213,213525827.50847614
6085,213525827.50847596
2,11, 1,11, 0, 7, 0.00,60.00,Wednesday
213,238569847.24867994
6085,238569847.24867976
2,11, 1,11, 0, 8, 0.00,60.00,Wednesday
213,236251155.01521936
6085,236251155.01521912
2,11, 1,11, 0, 9, 0.00,60.00,Wednesday
213,237614434.88069093
6085,237614434.88069072
2,11, 1,11, 0,10, 0.00,60.00,Wednesday
213,228939302.05048138
6085,228939302.05048123
2,11, 1,11, 0,11, 0.00,60.00,Wednesday
213,212924247.7520041
6085,212924247.75200394
2,11, 1,11, 0,12, 0.00,60.00,Wednesday
213,222637066.21047887
6085,222637066.2104787
2,11, 1,11, 0,13, 0.00,60.00,Wednesday
213,219982694.27622867
6085,219982694.27622846
2,11, 1,11, 0,14, 0.00,60.00,Wednesday
213,212275980.1232953
6085,212275980.12329516
2,11, 1,11, 0,15, 0.00,60.00,Wednesday
213,224095111.43238467
6085,224095111.4323845
2,11, 1,11, 0,16, 0.00,60.00,Wednesday
213,240671048.42405865
6085,240671048.4240585
2,11, 1,11, 0,17, 0.00,60.00,Wednesday
213,276696686.69014174
6085,276696686.6901419
2,11, 1,11, 0,18, 0.00,60.00,Wednesday
213,330311532.25962967
6085,330311532.25963014
2,11, 1,11, 0,19, 0.00,60.00,Wednesday
213,350940732.63866234
6085,350940732.63866293
2,11, 1,11, 0,20, 0.00,60.00,Wednesday
213,338600866.6400803
6085,338600866.6400807
2,11, 1,11, 0,21, 0.00,60.00,Wednesday
213,333336366.33202696
6085,333336366.33202744
2,11, 1,11, 0,22, 0.00,60.00,Wednesday
213,316098700.8494354
6085,316098700.84943557
2,11, 1,11, 0,23, 0.00,60.00,Wednesday
213,287156921.54509
6085,287156921.54508984
2,11, 1,11, 0,24, 0.00,60.00,Wednesday
213,267784082.79442447
6085,267784082.79442427
2,12, 1,12, 0, 1, 0.00,60.00,Thursday
213,254035957.42818356
6085,254035957.42818356
2,12, 1,12, 0, 2, 0.00,60.00,Thursday
213,252164506.690284
6085,252164506.69028395
2,12, 1,12, 0, 3, 0.00,60.00,Thursday
213,251720193.71485475
6085,251720193.71485466
2,12, 1,12, 0, 4, 0.00,60.00,Thursday
213,251148489.98985583
6085,251148489.98985574
2,12, 1,12, 0, 5, 0.00,60.00,Thursday
213,254535780.59842798
6085,254535780.59842795
2,12, 1,12, 0, 6, 0.00,60.00,Thursday
213,277117464.62711084
6085,277117464.6271107
2,12, 1,12, 0, 7, 0.00,60.00,Thursday
213,302047865.7832524
6085,302047865.78325224
2,12, 1,12, 0, 8, 0.00,60.00,Thursday
213,299079315.9968872
6085,299079315.9968871
2,12, 1,12, 0, 9, 0.00,60.00,Thursday
213,301413686.39267087
6085,301413686.39267063
2,12, 1,12, 0,10, 0.00,60.00,Thursday
213,288390159.5559949
6085,288390159.55599475
2,12, 1,12, 0,11, 0.00,60.00,Thursday
213,263170554.2667471
6085,263170554.26674682
2,12, 1,12, 0,12, 0.00,60.00,Thursday
213,265744803.8613263
6085,265744803.86132616
2,12, 1,12, 0,13, 0.00,60.00,Thursday
213,259090924.36422428
6085,259090924.36422417
2,12, 1,12, 0,14, 0.00,60.00,Thursday
213,248374055.60148543
6085,248374055.60148525
2,12, 1,12, 0,15, 0.00,60.00,Thursday
213,256576715.02558282
6085,256576715.0255826
2,12, 1,12, 0,16, 0.00,60.00,Thursday
213,268515537.26378286
6085,268515537.2637827
2,12, 1,12, 0,17, 0.00,60.00,Thursday
213,304251880.3813486
6085,304251880.38134885
2,12, 1,12, 0,18, 0.00,60.00,Thursday
213,359068967.49309486
6085,359068967.49309534
2,12, 1,12, 0,19, 0.00,60.00,Thursday
213,372712287.45175624
6085,372712287.45175666
2,12, 1,12, 0,20, 0.00,60.00,Thursday
213,356121956.97924036
6085,356121956.97924083
2,12, 1,12, 0,21, 0.00,60.00,Thursday
213,355896822.0813412
6085,355896822.0813417
2,12, 1,12, 0,22, 0.00,60.00,Thursday
213,337100892.2152032
6085,337100892.2152034
2,12, 1,12, 0,23, 0.00,60.00,Thursday
213,301115791.8084693
6085,301115791.8084692
2,12, 1,12, 0,24, 0.00,60.00,Thursday
213,281552725.8282313
6085,281552725.8282312
2,13, 1,13, 0, 1, 0.00,60.00,Friday
213,269170088.9322674
6085,269170088.9322674
2,13, 1,13, 0, 2, 0.00,60.00,Friday
213,264621256.08486944
6085,264621256.0848693
2,13, 1,13, 0, 3, 0.00,60.00,Friday
213,269488920.13726085
6085,269488920.1372607
2,13, 1,13, 0, 4, 0.00,60.00,Friday
213,268788602.8516344
6085,268788602.8516343
2,13, 1,13, 0, 5, 0.00,60.00,Friday
213,266657781.88686287
6085,266657781.88686278
2,13, 1,13, 0, 6, 0.00,60.00,Friday
213,287920182.2149125
6085,287920182.2149123
2,13, 1,13, 0, 7, 0.00,60.00,Friday
213,310630585.2164348
6085,310630585.21643466
2,13, 1,13, 0, 8, 0.00,60.00,Friday
213,307220730.22495115
6085,307220730.224951
2,13, 1,13, 0, 9, 0.00,60.00,Friday
213,305529130.2631256
6085,305529130.2631254
2,13, 1,13, 0,10, 0.00,60.00,Friday
213,291733843.9660098
6085,291733843.9660096
2,13, 1,13, 0,11, 0.00,60.00,Friday
213,275637862.3082627
6085,275637862.3082626
2,13, 1,13, 0,12, 0.00,60.00,Friday
213,273660177.58002776
6085,273660177.58002764
2,13, 1,13, 0,13, 0.00,60.00,Friday
213,267888423.69886357
6085,267888423.6988634
2,13, 1,13, 0,14, 0.00,60.00,Friday
213,266695267.42732242
6085,266695267.42732227
2,13, 1,13, 0,15, 0.00,60.00,Friday
213,267052276.27620566
6085,267052276.27620548
2,13, 1,13, 0,16, 0.00,60.00,Friday
213,276308530.8993534
6085,276308530.89935327
2,13, 1,13, 0,17, 0.00,60.00,Friday
213,310915209.8796819
6085,310915209.87968206
2,13, 1,13, 0,18, 0.00,60.00,Friday
213,361220823.8521298
6085,361220823.85213035
2,13, 1,13, 0,19, 0.00,60.00,Friday
213,377784041.5018685
6085,377784041.50186884
2,13, 1,13, 0,20, 0.00,60.00,Friday
213,365005011.4286798
6085,365005011.4286802
2,13, 1,13, 0,21, 0.00,60.00,Friday
213,365710148.08530396
6085,365710148.08530444
2,13, 1,13, 0,22, 0.00,60.00,Friday
213,347420424.32282424
6085,347420424.3228245
2,13, 1,13, 0,23, 0.00,60.00,Friday
213,311498406.72166324
6085,311498406.72166306
2,13, 1,13, 0,24, 0.00,60.00,Friday
213,286082095.87887806
6085,286082095.8788779
2,14, 1,14, 0, 1, 0.00,60.00,Saturday
213,273249686.2514639
6085,273249686.25146383
2,14, 1,14, 0, 2, 0.00,60.00,Saturday
213,271755532.015041
6085,271755532.0150409
2,14, 1,14, 0, 3, 0.00,60.00,Saturday
213,275341148.0331506
6085,275341148.03315055
2,14, 1,14, 0, 4, 0.00,60.00,Saturday
213,274433732.09467506
6085,274433732.094675
2,14, 1,14, 0, 5, 0.00,60.00,Saturday
213,273320317.4953706
6085,273320317.4953706
2,14, 1,14, 0, 6, 0.00,60.00,Saturday
213,293656267.7874081
6085,293656267.78740793
2,14, 1,14, 0, 7, 0.00,60.00,Saturday
213,315401798.53584117
6085,315401798.53584105
2,14, 1,14, 0, 8, 0.00,60.00,Saturday
213,309713053.06782925
6085,309713053.0678291
2,14, 1,14, 0, 9, 0.00,60.00,Saturday
213,301701820.78703356
6085,301701820.7870334
2,14, 1,14, 0,10, 0.00,60.00,Saturday
213,288669431.0171601
6085,288669431.0171599
2,14, 1,14, 0,11, 0.00,60.00,Saturday
213,267885210.92302412
6085,267885210.92302394
2,14, 1,14, 0,12, 0.00,60.00,Saturday
213,277950118.7872557
6085,277950118.7872555
2,14, 1,14, 0,13, 0.00,60.00,Saturday
213,274487738.6561018
6085,274487738.65610164
2,14, 1,14, 0,14, 0.00,60.00,Saturday
213,262993654.50391713
6085,262993654.50391698
2,14, 1,14, 0,15, 0.00,60.00,Saturday
213,272537282.03347945
6085,272537282.03347933
2,14, 1,14, 0,16, 0.00,60.00,Saturday
213,285218725.2638147
6085,285218725.2638145
2,14, 1,14, 0,17, 0.00,60.00,Saturday
213,310121085.4638946
6085,310121085.4638947
2,14, 1,14, 0,18, 0.00,60.00,Saturday
213,367898434.79320025
6085,367898434.79320085
2,14, 1,14, 0,19, 0.00,60.00,Saturday
213,390586611.2827137
6085,390586611.28271425
2,14, 1,14, 0,20, 0.00,60.00,Saturday
213,374174903.3950526
6085,374174903.39505315
2,14, 1,14, 0,21, 0.00,60.00,Saturday
213,371789314.3459757
6085,371789314.3459761
2,14, 1,14, 0,22, 0.00,60.00,Saturday
213,350046173.2448697
6085,350046173.24486995
2,14, 1,14, 0,23, 0.00,60.00,Saturday
213,313502435.79052216
6085,313502435.7905219
2,14, 1,14, 0,24, 0.00,60.00,Saturday
213,289119983.8729801
6085,289119983.8729799
2,15, 1,15, 0, 1, 0.00,60.00,Sunday
213,272387195.63695353
6085,272387195.6369535
2,15, 1,15, 0, 2, 0.00,60.00,Sunday
213,268316628.86091346
6085,268316628.86091337
2,15, 1,15, 0, 3, 0.00,60.00,Sunday
213,272225234.8011528
6085,272225234.80115277
2,15, 1,15, 0, 4, 0.00,60.00,Sunday
213,271439209.32947063
6085,271439209.3294705
2,15, 1,15, 0, 5, 0.00,60.00,Sunday
213,270402744.3921157
6085,270402744.39211565
2,15, 1,15, 0, 6, 0.00,60.00,Sunday
213,284120910.71970725
6085,284120910.7197071
2,15, 1,15, 0, 7, 0.00,60.00,Sunday
213,308295571.0979672
6085,308295571.097967
2,15, 1,15, 0, 8, 0.00,60.00,Sunday
213,310672005.3519741
6085,310672005.351974
2,15, 1,15, 0, 9, 0.00,60.00,Sunday
213,309538773.30124915
6085,309538773.30124897
2,15, 1,15, 0,10, 0.00,60.00,Sunday
213,302999932.7121464
6085,302999932.71214616
2,15, 1,15, 0,11, 0.00,60.00,Sunday
213,285371597.086338
6085,285371597.0863378
2,15, 1,15, 0,12, 0.00,60.00,Sunday
213,287312338.16528153
6085,287312338.16528136
2,15, 1,15, 0,13, 0.00,60.00,Sunday
213,285404237.6839883
6085,285404237.6839881
2,15, 1,15, 0,14, 0.00,60.00,Sunday
213,282091310.10842156
6085,282091310.1084213
2,15, 1,15, 0,15, 0.00,60.00,Sunday
213,281904344.37625843
6085,281904344.3762583
2,15, 1,15, 0,16, 0.00,60.00,Sunday
213,294993874.02779055
6085,294993874.02779037
2,15, 1,15, 0,17, 0.00,60.00,Sunday
213,325443523.06026214
6085,325443523.0602623
2,15, 1,15, 0,18, 0.00,60.00,Sunday
213,370103331.52216715
6085,370103331.52216756
2,15, 1,15, 0,19, 0.00,60.00,Sunday