Program Version,EnergyPlus, Version 26.1.0-6f2e40d102, YMD=2026.04.15 00:18
1,5,Environment Title[],Latitude[deg],Longitude[deg],Time Zone[],Elevation[m]
2,8,Day of Simulation[],Month[],Day of Month[],DST Indicator[1=yes 0=no],Hour[],StartMinute[],EndMinute[],DayType
3,5,Cumulative Day of Simulation[],Month[],Day of Month[],DST Indicator[1=yes 0=no],DayType  ! When Daily Meters Requested
4,2,Cumulative Days of Simulation[],Month[]  ! When Monthly Meters Requested
5,1,Cumulative Days of Simulation[] ! When Run Period Meters Requested
6,1,Calendar Year of Simulation[] ! When Annual Meters Requested
213,1,Electricity:Facility [J] !Hourly
5925,1,ElectricityNet:Facility [J] !Hourly
End of Data Dictionary
1,RUNPERIOD 1,  28.11, 112.79,   8.00, 120.00
2,1, 1, 1, 0, 1, 0.00,60.00,Sunday
213,76993797.17144528
5925,76993797.17144525
2,1, 1, 1, 0, 2, 0.00,60.00,Sunday
213,81265747.3905069
5925,81265747.3905069
2,1, 1, 1, 0, 3, 0.00,60.00,Sunday
213,86101762.73703705
5925,86101762.73703703
2,1, 1, 1, 0, 4, 0.00,60.00,Sunday
213,79399584.74824655
5925,79399584.74824652
2,1, 1, 1, 0, 5, 0.00,60.00,Sunday
213,89363963.4234533
5925,89363963.42345329
2,1, 1, 1, 0, 6, 0.00,60.00,Sunday
213,116039564.80935735
5925,116039564.80935736
2,1, 1, 1, 0, 7, 0.00,60.00,Sunday
213,181478645.64820886
5925,181478645.6482088
2,1, 1, 1, 0, 8, 0.00,60.00,Sunday
213,185700880.33476645
5925,185700880.3347664
2,1, 1, 1, 0, 9, 0.00,60.00,Sunday
213,165372095.08908552
5925,165372095.08908552
2,1, 1, 1, 0,10, 0.00,60.00,Sunday
213,145497816.01380086
5925,145497816.01380083
2,1, 1, 1, 0,11, 0.00,60.00,Sunday
213,146553308.4763644
5925,146553308.4763644
2,1, 1, 1, 0,12, 0.00,60.00,Sunday
213,127409226.20632999
5925,127409226.20632997
2,1, 1, 1, 0,13, 0.00,60.00,Sunday
213,117344742.21903709
5925,117344742.21903709
2,1, 1, 1, 0,14, 0.00,60.00,Sunday
213,122618559.61633743
5925,122618559.61633737
2,1, 1, 1, 0,15, 0.00,60.00,Sunday
213,101526863.06997661
5925,101526863.06997661
2,1, 1, 1, 0,16, 0.00,60.00,Sunday
213,127245236.8395643
5925,127245236.83956431
2,1, 1, 1, 0,17, 0.00,60.00,Sunday
213,147494547.6823001
5925,147494547.68230006
2,1, 1, 1, 0,18, 0.00,60.00,Sunday
213,188162946.70297563
5925,188162946.70297596
2,1, 1, 1, 0,19, 0.00,60.00,Sunday
213,226193476.8815596
5925,226193476.88155997
2,1, 1, 1, 0,20, 0.00,60.00,Sunday
213,209740188.80797613
5925,209740188.80797645
2,1, 1, 1, 0,21, 0.00,60.00,Sunday
213,212805986.26683927
5925,212805986.26683962
2,1, 1, 1, 0,22, 0.00,60.00,Sunday
213,183535835.8674859
5925,183535835.86748597
2,1, 1, 1, 0,23, 0.00,60.00,Sunday
213,154344837.7223909
5925,154344837.72239086
2,1, 1, 1, 0,24, 0.00,60.00,Sunday
213,115883683.46703121
5925,115883683.46703117
2,2, 1, 2, 0, 1, 0.00,60.00,Holiday
213,84163603.03181317
5925,84163603.03181316
2,2, 1, 2, 0, 2, 0.00,60.00,Holiday
213,87569219.64059159
5925,87569219.64059159
2,2, 1, 2, 0, 3, 0.00,60.00,Holiday
213,75786095.97156012
5925,75786095.97156012
2,2, 1, 2, 0, 4, 0.00,60.00,Holiday
213,77033456.36651342
5925,77033456.3665134
2,2, 1, 2, 0, 5, 0.00,60.00,Holiday
213,89575593.76905207
5925,89575593.76905203
2,2, 1, 2, 0, 6, 0.00,60.00,Holiday
213,116238421.4975678
5925,116238421.49756782
2,2, 1, 2, 0, 7, 0.00,60.00,Holiday
213,181787561.28559503
5925,181787561.2855951
2,2, 1, 2, 0, 8, 0.00,60.00,Holiday
213,186036560.9263479
5925,186036560.9263479
2,2, 1, 2, 0, 9, 0.00,60.00,Holiday
213,165661236.1739685
5925,165661236.1739685
2,2, 1, 2, 0,10, 0.00,60.00,Holiday
213,145809816.85220745
5925,145809816.85220745
2,2, 1, 2, 0,11, 0.00,60.00,Holiday
213,146947786.25419295
5925,146947786.25419295
2,2, 1, 2, 0,12, 0.00,60.00,Holiday
213,133420075.67865944
5925,133420075.67865942
2,2, 1, 2, 0,13, 0.00,60.00,Holiday
213,125117317.81261414
5925,125117317.81261416
2,2, 1, 2, 0,14, 0.00,60.00,Holiday
213,109651274.00731094
5925,109651274.00731094
2,2, 1, 2, 0,15, 0.00,60.00,Holiday
213,114861563.39768146
5925,114861563.39768142
2,2, 1, 2, 0,16, 0.00,60.00,Holiday
213,113783610.88426435
5925,113783610.88426432
2,2, 1, 2, 0,17, 0.00,60.00,Holiday
213,154929473.76922452
5925,154929473.76922452
2,2, 1, 2, 0,18, 0.00,60.00,Holiday
213,185070416.8382036
5925,185070416.83820394
2,2, 1, 2, 0,19, 0.00,60.00,Holiday
213,226365242.08453923
5925,226365242.0845396
2,2, 1, 2, 0,20, 0.00,60.00,Holiday
213,216024985.71521804
5925,216024985.71521837
2,2, 1, 2, 0,21, 0.00,60.00,Holiday
213,201462908.43013418
5925,201462908.43013453
2,2, 1, 2, 0,22, 0.00,60.00,Holiday
213,181765945.9600705
5925,181765945.96007055
2,2, 1, 2, 0,23, 0.00,60.00,Holiday
213,154544445.49597487
5925,154544445.49597487
2,2, 1, 2, 0,24, 0.00,60.00,Holiday
213,116115036.19507115
5925,116115036.19507115
2,3, 1, 3, 0, 1, 0.00,60.00,Tuesday
213,97400140.0487788
5925,97400140.04877877
2,3, 1, 3, 0, 2, 0.00,60.00,Tuesday
213,80176278.07149324
5925,80176278.07149321
2,3, 1, 3, 0, 3, 0.00,60.00,Tuesday
213,75281323.58297154
5925,75281323.58297153
2,3, 1, 3, 0, 4, 0.00,60.00,Tuesday
213,86002134.9957256
5925,86002134.99572557
2,3, 1, 3, 0, 5, 0.00,60.00,Tuesday
213,83798705.75744021
5925,83798705.7574402
2,3, 1, 3, 0, 6, 0.00,60.00,Tuesday
213,116705341.20093668
5925,116705341.20093666
2,3, 1, 3, 0, 7, 0.00,60.00,Tuesday
213,182161564.76711804
5925,182161564.76711798
2,3, 1, 3, 0, 8, 0.00,60.00,Tuesday
213,178936775.02179244
5925,178936775.0217924
2,3, 1, 3, 0, 9, 0.00,60.00,Tuesday
213,177793989.7569721
5925,177793989.7569721
2,3, 1, 3, 0,10, 0.00,60.00,Tuesday
213,156290753.62973955
5925,156290753.62973955
2,3, 1, 3, 0,11, 0.00,60.00,Tuesday
213,145409026.30118617
5925,145409026.30118614
2,3, 1, 3, 0,12, 0.00,60.00,Tuesday
213,130527864.77714622
5925,130527864.77714622
2,3, 1, 3, 0,13, 0.00,60.00,Tuesday
213,129061789.91016334
5925,129061789.91016334
2,3, 1, 3, 0,14, 0.00,60.00,Tuesday
213,114105215.41678192
5925,114105215.41678192
2,3, 1, 3, 0,15, 0.00,60.00,Tuesday
213,126680606.88809764
5925,126680606.88809763
2,3, 1, 3, 0,16, 0.00,60.00,Tuesday
213,131726641.6418947
5925,131726641.6418947
2,3, 1, 3, 0,17, 0.00,60.00,Tuesday
213,138793574.78668368
5925,138793574.78668368
2,3, 1, 3, 0,18, 0.00,60.00,Tuesday
213,199364962.64380437
5925,199364962.6438047
2,3, 1, 3, 0,19, 0.00,60.00,Tuesday
213,213025921.03572375
5925,213025921.035724
2,3, 1, 3, 0,20, 0.00,60.00,Tuesday
213,223761711.42453897
5925,223761711.4245393
2,3, 1, 3, 0,21, 0.00,60.00,Tuesday
213,199655467.32596928
5925,199655467.3259696
2,3, 1, 3, 0,22, 0.00,60.00,Tuesday
213,183884002.6615867
5925,183884002.6615868
2,3, 1, 3, 0,23, 0.00,60.00,Tuesday
213,154676113.83838284
5925,154676113.83838278
2,3, 1, 3, 0,24, 0.00,60.00,Tuesday
213,116142972.7020264
5925,116142972.7020264
2,4, 1, 4, 0, 1, 0.00,60.00,Wednesday
213,90554478.42506227
5925,90554478.42506227
2,4, 1, 4, 0, 2, 0.00,60.00,Wednesday
213,81923788.88451959
5925,81923788.88451959
2,4, 1, 4, 0, 3, 0.00,60.00,Wednesday
213,86901738.14299561
5925,86901738.14299561
2,4, 1, 4, 0, 4, 0.00,60.00,Wednesday
213,80191704.45373623
5925,80191704.45373619
2,4, 1, 4, 0, 5, 0.00,60.00,Wednesday
213,76969765.01531619
5925,76969765.01531617
2,4, 1, 4, 0, 6, 0.00,60.00,Wednesday
213,116779528.82737446
5925,116779528.82737444
2,4, 1, 4, 0, 7, 0.00,60.00,Wednesday
213,182203067.706552
5925,182203067.70655197
2,4, 1, 4, 0, 8, 0.00,60.00,Wednesday
213,186762240.35823256
5925,186762240.35823256
2,4, 1, 4, 0, 9, 0.00,60.00,Wednesday
213,170304008.67539304
5925,170304008.67539302
2,4, 1, 4, 0,10, 0.00,60.00,Wednesday
213,163924195.48049533
5925,163924195.4804953
2,4, 1, 4, 0,11, 0.00,60.00,Wednesday
213,137651139.2959786
5925,137651139.29597858
2,4, 1, 4, 0,12, 0.00,60.00,Wednesday
213,137204581.13015637
5925,137204581.13015637
2,4, 1, 4, 0,13, 0.00,60.00,Wednesday
213,128166735.62286454
5925,128166735.62286451
2,4, 1, 4, 0,14, 0.00,60.00,Wednesday
213,126511423.12996572
5925,126511423.12996572
2,4, 1, 4, 0,15, 0.00,60.00,Wednesday
213,105398869.73960799
5925,105398869.73960797
2,4, 1, 4, 0,16, 0.00,60.00,Wednesday
213,131039934.73104516
5925,131039934.73104514
2,4, 1, 4, 0,17, 0.00,60.00,Wednesday
213,158351466.88495898
5925,158351466.88495895
2,4, 1, 4, 0,18, 0.00,60.00,Wednesday
213,185875055.2883141
5925,185875055.28831443
2,4, 1, 4, 0,19, 0.00,60.00,Wednesday
213,226146871.6211197
5925,226146871.62112007
2,4, 1, 4, 0,20, 0.00,60.00,Wednesday
213,202284363.01589778
5925,202284363.0158981
2,4, 1, 4, 0,21, 0.00,60.00,Wednesday
213,216566638.17642164
5925,216566638.17642197
2,4, 1, 4, 0,22, 0.00,60.00,Wednesday
213,179968824.95987687
5925,179968824.95987687
2,4, 1, 4, 0,23, 0.00,60.00,Wednesday
213,140929879.01292396
5925,140929879.01292393
2,4, 1, 4, 0,24, 0.00,60.00,Wednesday
213,129067742.54903361
5925,129067742.5490336
2,5, 1, 5, 0, 1, 0.00,60.00,Thursday
213,84152803.53114675
5925,84152803.53114673
2,5, 1, 5, 0, 2, 0.00,60.00,Thursday
213,94537832.75676233
5925,94537832.75676233
2,5, 1, 5, 0, 3, 0.00,60.00,Thursday
213,73335542.26896982
5925,73335542.2689698
2,5, 1, 5, 0, 4, 0.00,60.00,Thursday
213,72666512.80643952
5925,72666512.80643949
2,5, 1, 5, 0, 5, 0.00,60.00,Thursday
213,96493159.76631588
5925,96493159.76631586
2,5, 1, 5, 0, 6, 0.00,60.00,Thursday
213,116337172.20031029
5925,116337172.20031029
2,5, 1, 5, 0, 7, 0.00,60.00,Thursday
213,181967425.33914983
5925,181967425.33914986
2,5, 1, 5, 0, 8, 0.00,60.00,Thursday
213,178826276.77393097
5925,178826276.77393097
2,5, 1, 5, 0, 9, 0.00,60.00,Thursday
213,177336587.8860549
5925,177336587.88605487
2,5, 1, 5, 0,10, 0.00,60.00,Thursday
213,141718328.36583978
5925,141718328.36583978
2,5, 1, 5, 0,11, 0.00,60.00,Thursday
213,157650553.58501497
5925,157650553.58501497
2,5, 1, 5, 0,12, 0.00,60.00,Thursday
213,129145517.80832145
5925,129145517.80832142
2,5, 1, 5, 0,13, 0.00,60.00,Thursday
213,120659582.73421182
5925,120659582.73421179
2,5, 1, 5, 0,14, 0.00,60.00,Thursday
213,119449147.31971315
5925,119449147.31971315
2,5, 1, 5, 0,15, 0.00,60.00,Thursday
213,124991007.79997277
5925,124991007.79997277
2,5, 1, 5, 0,16, 0.00,60.00,Thursday
213,116723553.27105065
5925,116723553.27105062
2,5, 1, 5, 0,17, 0.00,60.00,Thursday
213,150800645.26906827
5925,150800645.26906827
2,5, 1, 5, 0,18, 0.00,60.00,Thursday
213,184850333.3370911
5925,184850333.33709145
2,5, 1, 5, 0,19, 0.00,60.00,Thursday
213,225839465.206538
5925,225839465.2065383
2,5, 1, 5, 0,20, 0.00,60.00,Thursday
213,223018883.2134332
5925,223018883.2134336
2,5, 1, 5, 0,21, 0.00,60.00,Thursday
213,198977021.00552645
5925,198977021.00552684
2,5, 1, 5, 0,22, 0.00,60.00,Thursday
213,183186797.89908335
5925,183186797.89908335
2,5, 1, 5, 0,23, 0.00,60.00,Thursday
213,153808581.13416794
5925,153808581.1341679
2,5, 1, 5, 0,24, 0.00,60.00,Thursday
213,115043411.1393829
5925,115043411.13938287
2,6, 1, 6, 0, 1, 0.00,60.00,Friday
213,83062826.92878422
5925,83062826.92878419
2,6, 1, 6, 0, 2, 0.00,60.00,Friday
213,86926490.19056076
5925,86926490.19056074
2,6, 1, 6, 0, 3, 0.00,60.00,Friday
213,75195976.23718275
5925,75195976.23718274
2,6, 1, 6, 0, 4, 0.00,60.00,Friday
213,89152948.24687894
5925,89152948.24687892
2,6, 1, 6, 0, 5, 0.00,60.00,Friday
213,75738694.34797487
5925,75738694.34797484
2,6, 1, 6, 0, 6, 0.00,60.00,Friday
213,115564779.95747863
5925,115564779.95747861
2,6, 1, 6, 0, 7, 0.00,60.00,Friday
213,181770232.3309528
5925,181770232.33095276
2,6, 1, 6, 0, 8, 0.00,60.00,Friday
213,185223196.94110525
5925,185223196.94110525
2,6, 1, 6, 0, 9, 0.00,60.00,Friday
213,168970822.63288385
5925,168970822.63288385
2,6, 1, 6, 0,10, 0.00,60.00,Friday
213,162424326.5860008
5925,162424326.5860008
2,6, 1, 6, 0,11, 0.00,60.00,Friday
213,136399691.78242716
5925,136399691.78242713
2,6, 1, 6, 0,12, 0.00,60.00,Friday
213,137683135.55572307
5925,137683135.5557231
2,6, 1, 6, 0,13, 0.00,60.00,Friday
213,131031941.05579112
5925,131031941.05579111
2,6, 1, 6, 0,14, 0.00,60.00,Friday
213,118508196.4926998
5925,118508196.4926998
2,6, 1, 6, 0,15, 0.00,60.00,Friday
213,129527350.07277933
5925,129527350.07277933
2,6, 1, 6, 0,16, 0.00,60.00,Friday
213,129026033.07182048
5925,129026033.07182048
2,6, 1, 6, 0,17, 0.00,60.00,Friday
213,155009054.64666894
5925,155009054.64666894
2,6, 1, 6, 0,18, 0.00,60.00,Friday
213,199594612.88614333
5925,199594612.88614365
2,6, 1, 6, 0,19, 0.00,60.00,Friday
213,211855602.31993222
5925,211855602.3199325
2,6, 1, 6, 0,20, 0.00,60.00,Friday
213,216894061.23580736
5925,216894061.23580772
2,6, 1, 6, 0,21, 0.00,60.00,Friday
213,203634720.69763863
5925,203634720.6976389
2,6, 1, 6, 0,22, 0.00,60.00,Friday
213,178304988.24895948
5925,178304988.24895948
2,6, 1, 6, 0,23, 0.00,60.00,Friday
213,155054442.3747642
5925,155054442.3747642
2,6, 1, 6, 0,24, 0.00,60.00,Friday
213,113558000.50624904
5925,113558000.50624904
2,7, 1, 7, 0, 1, 0.00,60.00,Saturday
213,96250951.59242243
5925,96250951.5924224
2,7, 1, 7, 0, 2, 0.00,60.00,Saturday
213,78146800.44262154
5925,78146800.44262153
2,7, 1, 7, 0, 3, 0.00,60.00,Saturday
213,82103171.78861132
5925,82103171.78861131
2,7, 1, 7, 0, 4, 0.00,60.00,Saturday
213,79860832.1413882
5925,79860832.14138816
2,7, 1, 7, 0, 5, 0.00,60.00,Saturday
213,81224392.72121954
5925,81224392.72121952
2,7, 1, 7, 0, 6, 0.00,60.00,Saturday
213,115875677.57283384
5925,115875677.5728338
2,7, 1, 7, 0, 7, 0.00,60.00,Saturday
213,181657370.95405418
5925,181657370.95405415
2,7, 1, 7, 0, 8, 0.00,60.00,Saturday
213,181642351.88191155
5925,181642351.88191155
2,7, 1, 7, 0, 9, 0.00,60.00,Saturday
213,167439709.1050511
5925,167439709.1050511
2,7, 1, 7, 0,10, 0.00,60.00,Saturday
213,156607647.75946608
5925,156607647.7594661
2,7, 1, 7, 0,11, 0.00,60.00,Saturday
213,134613933.91510126
5925,134613933.9151012
2,7, 1, 7, 0,12, 0.00,60.00,Saturday
213,129827863.97424334
5925,129827863.97424334
2,7, 1, 7, 0,13, 0.00,60.00,Saturday
213,125258485.71083412
5925,125258485.71083409
2,7, 1, 7, 0,14, 0.00,60.00,Saturday
213,122251285.63270807
5925,122251285.63270807
2,7, 1, 7, 0,15, 0.00,60.00,Saturday
213,111410290.76078045
5925,111410290.76078044
2,7, 1, 7, 0,16, 0.00,60.00,Saturday
213,131427512.62025474
5925,131427512.62025471
2,7, 1, 7, 0,17, 0.00,60.00,Saturday
213,145758944.9142237
5925,145758944.91422367
2,7, 1, 7, 0,18, 0.00,60.00,Saturday
213,194662692.08928445
5925,194662692.08928478
2,7, 1, 7, 0,19, 0.00,60.00,Saturday
213,217476656.7558918
5925,217476656.7558921
2,7, 1, 7, 0,20, 0.00,60.00,Saturday
213,213247449.63960594
5925,213247449.63960627
2,7, 1, 7, 0,21, 0.00,60.00,Saturday
213,208269849.56952882
5925,208269849.56952915
2,7, 1, 7, 0,22, 0.00,60.00,Saturday
213,181169700.8190929
5925,181169700.8190929
2,7, 1, 7, 0,23, 0.00,60.00,Saturday
213,153771194.38284135
5925,153771194.38284135
2,7, 1, 7, 0,24, 0.00,60.00,Saturday
213,114795911.2295068
5925,114795911.2295068
2,8, 1, 8, 0, 1, 0.00,60.00,Sunday
213,87453608.48085555
5925,87453608.48085554
2,8, 1, 8, 0, 2, 0.00,60.00,Sunday
213,84067470.35488981
5925,84067470.35488981
2,8, 1, 8, 0, 3, 0.00,60.00,Sunday
213,82032014.40347807
5925,82032014.40347804
2,8, 1, 8, 0, 4, 0.00,60.00,Sunday
213,73644990.91210614
5925,73644990.91210611
2,8, 1, 8, 0, 5, 0.00,60.00,Sunday
213,88926494.13225387
5925,88926494.13225387
2,8, 1, 8, 0, 6, 0.00,60.00,Sunday
213,113936289.7225985
5925,113936289.72259848
2,8, 1, 8, 0, 7, 0.00,60.00,Sunday
213,182709556.568182
5925,182709556.568182
2,8, 1, 8, 0, 8, 0.00,60.00,Sunday
213,181164961.47882426
5925,181164961.47882426
2,8, 1, 8, 0, 9, 0.00,60.00,Sunday
213,167446450.15400377
5925,167446450.15400374
2,8, 1, 8, 0,10, 0.00,60.00,Sunday
213,148413955.44667542
5925,148413955.4466754
2,8, 1, 8, 0,11, 0.00,60.00,Sunday
213,147492221.22945812
5925,147492221.2294581
2,8, 1, 8, 0,12, 0.00,60.00,Sunday
213,134831083.01745865
5925,134831083.01745862
2,8, 1, 8, 0,13, 0.00,60.00,Sunday
213,138733465.43217328
5925,138733465.43217328
2,8, 1, 8, 0,14, 0.00,60.00,Sunday
213,126338380.88651216
5925,126338380.88651218
2,8, 1, 8, 0,15, 0.00,60.00,Sunday
213,129907531.51453644
5925,129907531.51453641
2,8, 1, 8, 0,16, 0.00,60.00,Sunday
213,134498374.40697923
5925,134498374.40697923
2,8, 1, 8, 0,17, 0.00,60.00,Sunday
213,159492667.0662917
5925,159492667.0662917
2,8, 1, 8, 0,18, 0.00,60.00,Sunday
213,196222255.10075706
5925,196222255.1007574
2,8, 1, 8, 0,19, 0.00,60.00,Sunday
213,225765156.3661502
5925,225765156.3661505
2,8, 1, 8, 0,20, 0.00,60.00,Sunday
213,220416163.57984203
5925,220416163.57984236
2,8, 1, 8, 0,21, 0.00,60.00,Sunday
213,204592480.9634826
5925,204592480.96348295
2,8, 1, 8, 0,22, 0.00,60.00,Sunday
213,184350447.7968146
5925,184350447.79681462
2,8, 1, 8, 0,23, 0.00,60.00,Sunday
213,152376207.77234632
5925,152376207.77234632
2,8, 1, 8, 0,24, 0.00,60.00,Sunday
213,115723959.35644427
5925,115723959.35644427
2,9, 1, 9, 0, 1, 0.00,60.00,Monday
213,93448475.8185358
5925,93448475.81853577
2,9, 1, 9, 0, 2, 0.00,60.00,Monday
213,76119058.35332215
5925,76119058.35332213
2,9, 1, 9, 0, 3, 0.00,60.00,Monday
213,81019700.15447403
5925,81019700.15447402
2,9, 1, 9, 0, 4, 0.00,60.00,Monday
213,82168891.55845305
5925,82168891.55845302
2,9, 1, 9, 0, 5, 0.00,60.00,Monday
213,81852521.76337178
5925,81852521.76337175
2,9, 1, 9, 0, 6, 0.00,60.00,Monday
213,113923615.93187623
5925,113923615.93187621
2,9, 1, 9, 0, 7, 0.00,60.00,Monday
213,182792983.6091786
5925,182792983.60917857
2,9, 1, 9, 0, 8, 0.00,60.00,Monday
213,184831033.8828575
5925,184831033.8828575
2,9, 1, 9, 0, 9, 0.00,60.00,Monday
213,168396156.8923962
5925,168396156.8923962
2,9, 1, 9, 0,10, 0.00,60.00,Monday
213,159566034.1512702
5925,159566034.15127018
2,9, 1, 9, 0,11, 0.00,60.00,Monday
213,145889208.59072483
5925,145889208.5907248
2,9, 1, 9, 0,12, 0.00,60.00,Monday
213,148709500.77767712
5925,148709500.77767712
2,9, 1, 9, 0,13, 0.00,60.00,Monday
213,142102724.6825678
5925,142102724.68256783
2,9, 1, 9, 0,14, 0.00,60.00,Monday
213,148858484.1207295
5925,148858484.1207295
2,9, 1, 9, 0,15, 0.00,60.00,Monday
213,133928230.76336932
5925,133928230.76336932
2,9, 1, 9, 0,16, 0.00,60.00,Monday
213,153558570.6812739
5925,153558570.6812739
2,9, 1, 9, 0,17, 0.00,60.00,Monday
213,176083663.01663074
5925,176083663.01663077
2,9, 1, 9, 0,18, 0.00,60.00,Monday
213,198009552.90385544
5925,198009552.90385583
2,9, 1, 9, 0,19, 0.00,60.00,Monday
213,231838273.07164755
5925,231838273.0716479
2,9, 1, 9, 0,20, 0.00,60.00,Monday
213,208780152.06249386
5925,208780152.06249416
2,9, 1, 9, 0,21, 0.00,60.00,Monday
213,218330513.45390475
5925,218330513.45390508
2,9, 1, 9, 0,22, 0.00,60.00,Monday
213,182518129.55554637
5925,182518129.55554643
2,9, 1, 9, 0,23, 0.00,60.00,Monday
213,152029165.50665116
5925,152029165.50665116
2,9, 1, 9, 0,24, 0.00,60.00,Monday
213,114697738.22093752
5925,114697738.22093749
2,10, 1,10, 0, 1, 0.00,60.00,Tuesday
213,89129773.57435188
5925,89129773.57435186
2,10, 1,10, 0, 2, 0.00,60.00,Tuesday
213,84843204.35939626
5925,84843204.35939625
2,10, 1,10, 0, 3, 0.00,60.00,Tuesday
213,81011992.02002984
5925,81011992.02002984
2,10, 1,10, 0, 4, 0.00,60.00,Tuesday
213,73402077.6230872
5925,73402077.62308717
2,10, 1,10, 0, 5, 0.00,60.00,Tuesday
213,91508108.89374104
5925,91508108.89374103
2,10, 1,10, 0, 6, 0.00,60.00,Tuesday
213,117726210.7687622
5925,117726210.76876219
2,10, 1,10, 0, 7, 0.00,60.00,Tuesday
213,179240556.35719883
5925,179240556.35719883
2,10, 1,10, 0, 8, 0.00,60.00,Tuesday
213,182024312.47304064
5925,182024312.47304058
2,10, 1,10, 0, 9, 0.00,60.00,Tuesday
213,172947072.8309957
5925,172947072.8309957
2,10, 1,10, 0,10, 0.00,60.00,Tuesday
213,149445435.33273402
5925,149445435.33273402
2,10, 1,10, 0,11, 0.00,60.00,Tuesday
213,158618882.89549187
5925,158618882.89549184
2,10, 1,10, 0,12, 0.00,60.00,Tuesday
213,146394410.68050504
5925,146394410.68050504
2,10, 1,10, 0,13, 0.00,60.00,Tuesday
213,146593307.64952022
5925,146593307.64952022
2,10, 1,10, 0,14, 0.00,60.00,Tuesday
213,143554028.72311148
5925,143554028.72311145
2,10, 1,10, 0,15, 0.00,60.00,Tuesday
213,137099131.86871362
5925,137099131.86871365
2,10, 1,10, 0,16, 0.00,60.00,Tuesday
213,141756857.9845869
5925,141756857.9845869
2,10, 1,10, 0,17, 0.00,60.00,Tuesday
213,167634285.03999385
5925,167634285.03999382
2,10, 1,10, 0,18, 0.00,60.00,Tuesday
213,196681408.9390089
5925,196681408.93900916
2,10, 1,10, 0,19, 0.00,60.00,Tuesday
213,233213436.09247446
5925,233213436.09247476
2,10, 1,10, 0,20, 0.00,60.00,Tuesday
213,228723830.63747627
5925,228723830.63747662
2,10, 1,10, 0,21, 0.00,60.00,Tuesday
213,209055788.53103364
5925,209055788.53103396
2,10, 1,10, 0,22, 0.00,60.00,Tuesday
213,188412093.86487576
5925,188412093.8648759
2,10, 1,10, 0,23, 0.00,60.00,Tuesday
213,155981989.57831025
5925,155981989.57831025
2,10, 1,10, 0,24, 0.00,60.00,Tuesday
213,119148443.18403412
5925,119148443.18403412
2,11, 1,11, 0, 1, 0.00,60.00,Wednesday
213,84653784.97233309
5925,84653784.97233306
2,11, 1,11, 0, 2, 0.00,60.00,Wednesday
213,86295645.93422398
5925,86295645.93422398
2,11, 1,11, 0, 3, 0.00,60.00,Wednesday
213,78429655.9437574
5925,78429655.9437574
2,11, 1,11, 0, 4, 0.00,60.00,Wednesday
213,81054555.00455232
5925,81054555.0045523
2,11, 1,11, 0, 5, 0.00,60.00,Wednesday
213,82308464.51617062
5925,82308464.51617059
2,11, 1,11, 0, 6, 0.00,60.00,Wednesday
213,115409228.88778313
5925,115409228.88778311
2,11, 1,11, 0, 7, 0.00,60.00,Wednesday
213,179744537.62340492
5925,179744537.6234049
2,11, 1,11, 0, 8, 0.00,60.00,Wednesday
213,185049786.90378726
5925,185049786.90378729
2,11, 1,11, 0, 9, 0.00,60.00,Wednesday
213,170300195.82488492
5925,170300195.82488495
2,11, 1,11, 0,10, 0.00,60.00,Wednesday
213,158859040.0742678
5925,158859040.07426777
2,11, 1,11, 0,11, 0.00,60.00,Wednesday
213,141909479.47599646
5925,141909479.47599643
2,11, 1,11, 0,12, 0.00,60.00,Wednesday
213,135667066.61361766
5925,135667066.61361766
2,11, 1,11, 0,13, 0.00,60.00,Wednesday
213,130096886.60801251
5925,130096886.60801251
2,11, 1,11, 0,14, 0.00,60.00,Wednesday
213,117269360.75375503
5925,117269360.753755
2,11, 1,11, 0,15, 0.00,60.00,Wednesday
213,119449903.21058103
5925,119449903.210581
2,11, 1,11, 0,16, 0.00,60.00,Wednesday
213,123237404.05198637
5925,123237404.05198634
2,11, 1,11, 0,17, 0.00,60.00,Wednesday
213,148054701.0327632
5925,148054701.03276318
2,11, 1,11, 0,18, 0.00,60.00,Wednesday
213,197497782.43431002
5925,197497782.43431035
2,11, 1,11, 0,19, 0.00,60.00,Wednesday
213,215438818.36901888
5925,215438818.36901924
2,11, 1,11, 0,20, 0.00,60.00,Wednesday
213,217443190.7461588
5925,217443190.7461591
2,11, 1,11, 0,21, 0.00,60.00,Wednesday
213,204884636.93219972
5925,204884636.9322
2,11, 1,11, 0,22, 0.00,60.00,Wednesday
213,180737475.96804416
5925,180737475.96804416
2,11, 1,11, 0,23, 0.00,60.00,Wednesday
213,152065896.42707062
5925,152065896.4270706
2,11, 1,11, 0,24, 0.00,60.00,Wednesday
213,117455398.6131846
5925,117455398.6131846
2,12, 1,12, 0, 1, 0.00,60.00,Thursday
213,92201188.49826543
5925,92201188.4982654
2,12, 1,12, 0, 2, 0.00,60.00,Thursday
213,78873986.3343769
5925,78873986.33437689
2,12, 1,12, 0, 3, 0.00,60.00,Thursday
213,86301746.11488995
5925,86301746.11488993
2,12, 1,12, 0, 4, 0.00,60.00,Thursday
213,74352025.66533118
5925,74352025.66533117
2,12, 1,12, 0, 5, 0.00,60.00,Thursday
213,87839735.28050551
5925,87839735.2805055
2,12, 1,12, 0, 6, 0.00,60.00,Thursday
213,112877968.70626447
5925,112877968.70626442
2,12, 1,12, 0, 7, 0.00,60.00,Thursday
213,184276180.7377537
5925,184276180.7377537
2,12, 1,12, 0, 8, 0.00,60.00,Thursday
213,182138328.68525648
5925,182138328.68525648
2,12, 1,12, 0, 9, 0.00,60.00,Thursday
213,170113185.36235312
5925,170113185.3623531
2,12, 1,12, 0,10, 0.00,60.00,Thursday
213,154699272.74365476
5925,154699272.7436547
2,12, 1,12, 0,11, 0.00,60.00,Thursday
213,147575556.01531821
5925,147575556.01531821
2,12, 1,12, 0,12, 0.00,60.00,Thursday
213,133948089.29807495
5925,133948089.29807496
2,12, 1,12, 0,13, 0.00,60.00,Thursday
213,120417483.17721923
5925,120417483.17721921
2,12, 1,12, 0,14, 0.00,60.00,Thursday
213,125401897.74734513
5925,125401897.74734512
2,12, 1,12, 0,15, 0.00,60.00,Thursday
213,114598051.02746278
5925,114598051.02746278
2,12, 1,12, 0,16, 0.00,60.00,Thursday
213,124221822.96712707
5925,124221822.96712705
2,12, 1,12, 0,17, 0.00,60.00,Thursday
213,151788514.58148605
5925,151788514.58148605
2,12, 1,12, 0,18, 0.00,60.00,Thursday
213,188206992.359356
5925,188206992.35935628
2,12, 1,12, 0,19, 0.00,60.00,Thursday
213,223290654.52868542
5925,223290654.52868575
2,12, 1,12, 0,20, 0.00,60.00,Thursday
213,218632347.88163364
5925,218632347.88163394
2,12, 1,12, 0,21, 0.00,60.00,Thursday
213,203616931.37371746
5925,203616931.37371773
2,12, 1,12, 0,22, 0.00,60.00,Thursday
213,181567422.7700844
5925,181567422.7700844
2,12, 1,12, 0,23, 0.00,60.00,Thursday
213,153970325.92099637
5925,153970325.92099634
2,12, 1,12, 0,24, 0.00,60.00,Thursday
213,115256195.89207155
5925,115256195.89207155
2,13, 1,13, 0, 1, 0.00,60.00,Friday
213,87792281.9139682
5925,87792281.91396818
2,13, 1,13, 0, 2, 0.00,60.00,Friday
213,84304888.96182048
5925,84304888.96182047
2,13, 1,13, 0, 3, 0.00,60.00,Friday
213,75234346.40807109
5925,75234346.40807106
2,13, 1,13, 0, 4, 0.00,60.00,Friday
213,84177700.0043603
5925,84177700.00436026
2,13, 1,13, 0, 5, 0.00,60.00,Friday
213,82779992.23323208
5925,82779992.23323208
2,13, 1,13, 0, 6, 0.00,60.00,Friday
213,116593570.48651092
5925,116593570.48651089
2,13, 1,13, 0, 7, 0.00,60.00,Friday
213,180442109.26948553
5925,180442109.26948553
2,13, 1,13, 0, 8, 0.00,60.00,Friday
213,182900082.12138987
5925,182900082.12138987
2,13, 1,13, 0, 9, 0.00,60.00,Friday
213,172544793.36335346
5925,172544793.36335346
2,13, 1,13, 0,10, 0.00,60.00,Friday
213,157215127.868431
5925,157215127.868431
2,13, 1,13, 0,11, 0.00,60.00,Friday
213,143402622.4912452
5925,143402622.4912452
2,13, 1,13, 0,12, 0.00,60.00,Friday
213,134266259.27305648
5925,134266259.27305648
2,13, 1,13, 0,13, 0.00,60.00,Friday
213,129579310.56513251
5925,129579310.56513253
2,13, 1,13, 0,14, 0.00,60.00,Friday
213,120836591.9339217
5925,120836591.93392166
2,13, 1,13, 0,15, 0.00,60.00,Friday
213,112025848.0258436
5925,112025848.02584359
2,13, 1,13, 0,16, 0.00,60.00,Friday
213,126959483.75010508
5925,126959483.75010508
2,13, 1,13, 0,17, 0.00,60.00,Friday
213,151981189.8396774
5925,151981189.8396774
2,13, 1,13, 0,18, 0.00,60.00,Friday
213,191720013.13874972
5925,191720013.1387501
2,13, 1,13, 0,19, 0.00,60.00,Friday
213,220600517.77870062
5925,220600517.7787009
2,13, 1,13, 0,20, 0.00,60.00,Friday
213,212303644.4812375
5925,212303644.48123783
2,13, 1,13, 0,21, 0.00,60.00,Friday
213,210127036.57798633
5925,210127036.57798666
2,13, 1,13, 0,22, 0.00,60.00,Friday
213,181340497.79469657
5925,181340497.79469657
2,13, 1,13, 0,23, 0.00,60.00,Friday
213,150322209.55039504
5925,150322209.55039504
2,13, 1,13, 0,24, 0.00,60.00,Friday
213,118121856.00578769
5925,118121856.00578767
2,14, 1,14, 0, 1, 0.00,60.00,Saturday
213,87249178.09952843
5925,87249178.0995284
2,14, 1,14, 0, 2, 0.00,60.00,Saturday
213,83520489.92776656
5925,83520489.92776656
2,14, 1,14, 0, 3, 0.00,60.00,Saturday
213,80519447.15456808
5925,80519447.15456806
2,14, 1,14, 0, 4, 0.00,60.00,Saturday
213,76406263.54953936
5925,76406263.54953933
2,14, 1,14, 0, 5, 0.00,60.00,Saturday
213,89862306.54713869
5925,89862306.54713869
2,14, 1,14, 0, 6, 0.00,60.00,Saturday
213,113996596.64178
5925,113996596.64178
2,14, 1,14, 0, 7, 0.00,60.00,Saturday
213,183332290.52994087
5925,183332290.52994087
2,14, 1,14, 0, 8, 0.00,60.00,Saturday
213,181888644.94248927
5925,181888644.94248924
2,14, 1,14, 0, 9, 0.00,60.00,Saturday
213,168524803.2818864
5925,168524803.28188637
2,14, 1,14, 0,10, 0.00,60.00,Saturday
213,146791043.75707507
5925,146791043.75707507
2,14, 1,14, 0,11, 0.00,60.00,Saturday
213,145356219.78754574
5925,145356219.7875457
2,14, 1,14, 0,12, 0.00,60.00,Saturday
213,129093832.2846843
5925,129093832.2846843
2,14, 1,14, 0,13, 0.00,60.00,Saturday
213,126363288.94893737
5925,126363288.94893736
2,14, 1,14, 0,14, 0.00,60.00,Saturday
213,112800134.34242177
5925,112800134.34242174
2,14, 1,14, 0,15, 0.00,60.00,Saturday
213,113655439.62591594
5925,113655439.62591593
2,14, 1,14, 0,16, 0.00,60.00,Saturday
213,117716201.11167698
5925,117716201.11167696
2,14, 1,14, 0,17, 0.00,60.00,Saturday
213,147169337.50670996
5925,147169337.50670996
2,14, 1,14, 0,18, 0.00,60.00,Saturday
213,196621031.04038545
5925,196621031.04038575
2,14, 1,14, 0,19, 0.00,60.00,Saturday
213,216112937.60834518
5925,216112937.60834548
2,14, 1,14, 0,20, 0.00,60.00,Saturday
213,217082874.6620436
5925,217082874.66204396
2,14, 1,14, 0,21, 0.00,60.00,Saturday
213,205140385.42995378
5925,205140385.4299541
2,14, 1,14, 0,22, 0.00,60.00,Saturday
213,182139268.65651518
5925,182139268.6565152
2,14, 1,14, 0,23, 0.00,60.00,Saturday
213,151396956.15873924
5925,151396956.15873924
2,14, 1,14, 0,24, 0.00,60.00,Saturday
213,117100397.79594357
5925,117100397.79594356
2,15, 1,15, 0, 1, 0.00,60.00,Sunday
213,92678291.30544893
5925,92678291.3054489
2,15, 1,15, 0, 2, 0.00,60.00,Sunday
213,79536761.79760136
5925,79536761.79760136
2,15, 1,15, 0, 3, 0.00,60.00,Sunday
213,84628372.01524143
5925,84628372.01524138
2,15, 1,15, 0, 4, 0.00,60.00,Sunday
213,74856593.02744487
5925,74856593.02744485
2,15, 1,15, 0, 5, 0.00,60.00,Sunday
213,85466270.32696873
5925,85466270.32696868
2,15, 1,15, 0, 6, 0.00,60.00,Sunday
213,118677485.10458897
5925,118677485.10458896
2,15, 1,15, 0, 7, 0.00,60.00,Sunday
213,178941118.61907762
5925,178941118.61907765
2,15, 1,15, 0, 8, 0.00,60.00,Sunday
213,183066303.34237328
5925,183066303.34237328
2,15, 1,15, 0, 9, 0.00,60.00,Sunday
213,167692810.2492364
5925,167692810.24923638
2,15, 1,15, 0,10, 0.00,60.00,Sunday
213,153367728.89669514
5925,153367728.89669514
2,15, 1,15, 0,11, 0.00,60.00,Sunday
213,144322975.51002827
5925,144322975.51002827
2,15, 1,15, 0,12, 0.00,60.00,Sunday
213,130432646.14214891
5925,130432646.14214891
2,15, 1,15, 0,13, 0.00,60.00,Sunday
213,120019227.87192683
5925,120019227.87192681
2,15, 1,15, 0,14, 0.00,60.00,Sunday
213,117357393.80690487
5925,117357393.80690484
2,15, 1,15, 0,15, 0.00,60.00,Sunday
213,111131324.84767708
5925,111131324.84767707
2,15, 1,15, 0,16, 0.00,60.00,Sunday
213,121947783.4289313
5925,121947783.4289313
2,15, 1,15, 0,17, 0.00,60.00,Sunday
213,145588972.41605935
5925,145588972.41605935
2,15, 1,15, 0,18, 0.00,60.00,Sunday
213,187681349.59928086
5925,187681349.5992812