Program Version,EnergyPlus, Version 26.1.0-6f2e40d102, YMD=2026.04.15 00:12
1,5,Environment Title[],Latitude[deg],Longitude[deg],Time Zone[],Elevation[m]
2,8,Day of Simulation[],Month[],Day of Month[],DST Indicator[1=yes 0=no],Hour[],StartMinute[],EndMinute[],DayType
3,5,Cumulative Day of Simulation[],Month[],Day of Month[],DST Indicator[1=yes 0=no],DayType  ! When Daily Meters Requested
4,2,Cumulative Days of Simulation[],Month[]  ! When Monthly Meters Requested
5,1,Cumulative Days of Simulation[] ! When Run Period Meters Requested
6,1,Calendar Year of Simulation[] ! When Annual Meters Requested
213,1,Electricity:Facility [J] !Hourly
5925,1,ElectricityNet:Facility [J] !Hourly
End of Data Dictionary
1,RUNPERIOD 1,  28.11, 112.79,   8.00, 120.00
2,1, 1, 1, 0, 1, 0.00,60.00,Sunday
213,89195779.92064151
5925,89195779.9206415
2,1, 1, 1, 0, 2, 0.00,60.00,Sunday
213,92871356.67154571
5925,92871356.67154573
2,1, 1, 1, 0, 3, 0.00,60.00,Sunday
213,97786222.8559338
5925,97786222.85593382
2,1, 1, 1, 0, 4, 0.00,60.00,Sunday
213,91125404.8821355
5925,91125404.88213548
2,1, 1, 1, 0, 5, 0.00,60.00,Sunday
213,101088100.11807679
5925,101088100.11807679
2,1, 1, 1, 0, 6, 0.00,60.00,Sunday
213,127761669.2163763
5925,127761669.21637632
2,1, 1, 1, 0, 7, 0.00,60.00,Sunday
213,193041710.5136154
5925,193041710.5136154
2,1, 1, 1, 0, 8, 0.00,60.00,Sunday
213,196951953.7317413
5925,196951953.7317413
2,1, 1, 1, 0, 9, 0.00,60.00,Sunday
213,176859424.2833275
5925,176859424.28332746
2,1, 1, 1, 0,10, 0.00,60.00,Sunday
213,157175354.49624872
5925,157175354.49624872
2,1, 1, 1, 0,11, 0.00,60.00,Sunday
213,158057377.92708543
5925,158057377.92708543
2,1, 1, 1, 0,12, 0.00,60.00,Sunday
213,139996317.53968862
5925,139996317.53968862
2,1, 1, 1, 0,13, 0.00,60.00,Sunday
213,129038287.46743235
5925,129038287.4674323
2,1, 1, 1, 0,14, 0.00,60.00,Sunday
213,134247360.35086906
5925,134247360.35086906
2,1, 1, 1, 0,15, 0.00,60.00,Sunday
213,113840620.23271005
5925,113840620.23271005
2,1, 1, 1, 0,16, 0.00,60.00,Sunday
213,139792494.878584
5925,139792494.878584
2,1, 1, 1, 0,17, 0.00,60.00,Sunday
213,159441898.4179697
5925,159441898.4179698
2,1, 1, 1, 0,18, 0.00,60.00,Sunday
213,200056735.8841136
5925,200056735.88411397
2,1, 1, 1, 0,19, 0.00,60.00,Sunday
213,238023982.46775848
5925,238023982.4677588
2,1, 1, 1, 0,20, 0.00,60.00,Sunday
213,221590930.5368415
5925,221590930.53684187
2,1, 1, 1, 0,21, 0.00,60.00,Sunday
213,224694398.73354268
5925,224694398.73354307
2,1, 1, 1, 0,22, 0.00,60.00,Sunday
213,195517688.14274776
5925,195517688.14274794
2,1, 1, 1, 0,23, 0.00,60.00,Sunday
213,166421673.21903893
5925,166421673.21903893
2,1, 1, 1, 0,24, 0.00,60.00,Sunday
213,128505506.99833395
5925,128505506.99833396
2,2, 1, 2, 0, 1, 0.00,60.00,Holiday
213,96805354.18355374
5925,96805354.18355373
2,2, 1, 2, 0, 2, 0.00,60.00,Holiday
213,99819439.05477463
5925,99819439.05477461
2,2, 1, 2, 0, 3, 0.00,60.00,Holiday
213,91515478.74141133
5925,91515478.74141133
2,2, 1, 2, 0, 4, 0.00,60.00,Holiday
213,85724902.41089413
5925,85724902.41089411
2,2, 1, 2, 0, 5, 0.00,60.00,Holiday
213,101819245.92740957
5925,101819245.92740959
2,2, 1, 2, 0, 6, 0.00,60.00,Holiday
213,128505542.94041312
5925,128505542.94041312
2,2, 1, 2, 0, 7, 0.00,60.00,Holiday
213,194311918.6958358
5925,194311918.69583577
2,2, 1, 2, 0, 8, 0.00,60.00,Holiday
213,198438422.88804066
5925,198438422.88804066
2,2, 1, 2, 0, 9, 0.00,60.00,Holiday
213,178023209.48501357
5925,178023209.48501357
2,2, 1, 2, 0,10, 0.00,60.00,Holiday
213,158275401.82116234
5925,158275401.8211623
2,2, 1, 2, 0,11, 0.00,60.00,Holiday
213,159383295.95387694
5925,159383295.95387694
2,2, 1, 2, 0,12, 0.00,60.00,Holiday
213,145845490.4642114
5925,145845490.4642114
2,2, 1, 2, 0,13, 0.00,60.00,Holiday
213,137561843.03374034
5925,137561843.03374034
2,2, 1, 2, 0,14, 0.00,60.00,Holiday
213,122118902.2486043
5925,122118902.2486043
2,2, 1, 2, 0,15, 0.00,60.00,Holiday
213,127074386.95449972
5925,127074386.95449969
2,2, 1, 2, 0,16, 0.00,60.00,Holiday
213,125810998.0162982
5925,125810998.0162982
2,2, 1, 2, 0,17, 0.00,60.00,Holiday
213,166974820.4956111
5925,166974820.49561122
2,2, 1, 2, 0,18, 0.00,60.00,Holiday
213,197149711.87377244
5925,197149711.8737728
2,2, 1, 2, 0,19, 0.00,60.00,Holiday
213,238827540.23210356
5925,238827540.23210388
2,2, 1, 2, 0,20, 0.00,60.00,Holiday
213,228826791.72467804
5925,228826791.7246784
2,2, 1, 2, 0,21, 0.00,60.00,Holiday
213,215394104.47740456
5925,215394104.4774049
2,2, 1, 2, 0,22, 0.00,60.00,Holiday
213,192956285.8107237
5925,192956285.8107239
2,2, 1, 2, 0,23, 0.00,60.00,Holiday
213,167162250.2774284
5925,167162250.2774284
2,2, 1, 2, 0,24, 0.00,60.00,Holiday
213,129274208.12658617
5925,129274208.12658614
2,3, 1, 3, 0, 1, 0.00,60.00,Tuesday
213,110696813.19680959
5925,110696813.19680959
2,3, 1, 3, 0, 2, 0.00,60.00,Tuesday
213,94585359.00609025
5925,94585359.00609027
2,3, 1, 3, 0, 3, 0.00,60.00,Tuesday
213,86329030.40959476
5925,86329030.40959476
2,3, 1, 3, 0, 4, 0.00,60.00,Tuesday
213,98802449.45683187
5925,98802449.45683187
2,3, 1, 3, 0, 5, 0.00,60.00,Tuesday
213,96634756.31456824
5925,96634756.31456824
2,3, 1, 3, 0, 6, 0.00,60.00,Tuesday
213,130010155.89412034
5925,130010155.89412035
2,3, 1, 3, 0, 7, 0.00,60.00,Tuesday
213,195480773.89781502
5925,195480773.897815
2,3, 1, 3, 0, 8, 0.00,60.00,Tuesday
213,191861731.3854488
5925,191861731.38544878
2,3, 1, 3, 0, 9, 0.00,60.00,Tuesday
213,190682900.25964746
5925,190682900.2596475
2,3, 1, 3, 0,10, 0.00,60.00,Tuesday
213,169096705.68199885
5925,169096705.68199882
2,3, 1, 3, 0,11, 0.00,60.00,Tuesday
213,158327644.80534044
5925,158327644.80534047
2,3, 1, 3, 0,12, 0.00,60.00,Tuesday
213,143471243.67540443
5925,143471243.67540443
2,3, 1, 3, 0,13, 0.00,60.00,Tuesday
213,141881741.1008243
5925,141881741.1008243
2,3, 1, 3, 0,14, 0.00,60.00,Tuesday
213,126935811.41492353
5925,126935811.41492353
2,3, 1, 3, 0,15, 0.00,60.00,Tuesday
213,139586429.54375803
5925,139586429.54375803
2,3, 1, 3, 0,16, 0.00,60.00,Tuesday
213,144664343.67938855
5925,144664343.67938855
2,3, 1, 3, 0,17, 0.00,60.00,Tuesday
213,151805382.19517082
5925,151805382.195171
2,3, 1, 3, 0,18, 0.00,60.00,Tuesday
213,212457073.98113778
5925,212457073.98113814
2,3, 1, 3, 0,19, 0.00,60.00,Tuesday
213,226127718.32097685
5925,226127718.32097715
2,3, 1, 3, 0,20, 0.00,60.00,Tuesday
213,236944801.76125455
5925,236944801.7612549
2,3, 1, 3, 0,21, 0.00,60.00,Tuesday
213,212665081.66950047
5925,212665081.66950083
2,3, 1, 3, 0,22, 0.00,60.00,Tuesday
213,196697020.71613476
5925,196697020.71613497
2,3, 1, 3, 0,23, 0.00,60.00,Tuesday
213,167501368.64937618
5925,167501368.64937618
2,3, 1, 3, 0,24, 0.00,60.00,Tuesday
213,128953882.47932228
5925,128953882.47932231
2,4, 1, 4, 0, 1, 0.00,60.00,Wednesday
213,103377006.53545609
5925,103377006.53545608
2,4, 1, 4, 0, 2, 0.00,60.00,Wednesday
213,94761795.6143499
5925,94761795.6143499
2,4, 1, 4, 0, 3, 0.00,60.00,Wednesday
213,100184090.01276639
5925,100184090.0127664
2,4, 1, 4, 0, 4, 0.00,60.00,Wednesday
213,93456851.30391425
5925,93456851.30391423
2,4, 1, 4, 0, 5, 0.00,60.00,Wednesday
213,89930768.47974825
5925,89930768.47974825
2,4, 1, 4, 0, 6, 0.00,60.00,Wednesday
213,129990276.01380366
5925,129990276.01380363
2,4, 1, 4, 0, 7, 0.00,60.00,Wednesday
213,195330065.92267674
5925,195330065.92267677
2,4, 1, 4, 0, 8, 0.00,60.00,Wednesday
213,199727694.56326497
5925,199727694.563265
2,4, 1, 4, 0, 9, 0.00,60.00,Wednesday
213,183439075.32105762
5925,183439075.3210576
2,4, 1, 4, 0,10, 0.00,60.00,Wednesday
213,176917581.19998482
5925,176917581.19998482
2,4, 1, 4, 0,11, 0.00,60.00,Wednesday
213,150195116.42554152
5925,150195116.4255415
2,4, 1, 4, 0,12, 0.00,60.00,Wednesday
213,148811732.0342471
5925,148811732.03424713
2,4, 1, 4, 0,13, 0.00,60.00,Wednesday
213,139151695.51960012
5925,139151695.51960015
2,4, 1, 4, 0,14, 0.00,60.00,Wednesday
213,137451757.41175497
5925,137451757.411755
2,4, 1, 4, 0,15, 0.00,60.00,Wednesday
213,117126557.88868634
5925,117126557.88868636
2,4, 1, 4, 0,16, 0.00,60.00,Wednesday
213,142750432.64146686
5925,142750432.64146683
2,4, 1, 4, 0,17, 0.00,60.00,Wednesday
213,170078393.27520052
5925,170078393.27520066
2,4, 1, 4, 0,18, 0.00,60.00,Wednesday
213,197246583.1317281
5925,197246583.13172844
2,4, 1, 4, 0,19, 0.00,60.00,Wednesday
213,238109020.71325564
5925,238109020.713256
2,4, 1, 4, 0,20, 0.00,60.00,Wednesday
213,213654950.1868229
5925,213654950.18682322
2,4, 1, 4, 0,21, 0.00,60.00,Wednesday
213,230722956.99431115
5925,230722956.99431145
2,4, 1, 4, 0,22, 0.00,60.00,Wednesday
213,189804286.11603576
5925,189804286.11603597
2,4, 1, 4, 0,23, 0.00,60.00,Wednesday
213,152656151.83492467
5925,152656151.83492464
2,4, 1, 4, 0,24, 0.00,60.00,Wednesday
213,141305968.81851894
5925,141305968.81851894
2,5, 1, 5, 0, 1, 0.00,60.00,Thursday
213,96448510.17784339
5925,96448510.17784338
2,5, 1, 5, 0, 2, 0.00,60.00,Thursday
213,106478978.85553494
5925,106478978.85553496
2,5, 1, 5, 0, 3, 0.00,60.00,Thursday
213,85370845.78382252
5925,85370845.78382254
2,5, 1, 5, 0, 4, 0.00,60.00,Thursday
213,84637862.98080339
5925,84637862.98080337
2,5, 1, 5, 0, 5, 0.00,60.00,Thursday
213,108162687.34626894
5925,108162687.34626894
2,5, 1, 5, 0, 6, 0.00,60.00,Thursday
213,128535304.1566539
5925,128535304.1566539
2,5, 1, 5, 0, 7, 0.00,60.00,Thursday
213,194614133.05824748
5925,194614133.0582475
2,5, 1, 5, 0, 8, 0.00,60.00,Thursday
213,191305072.47694755
5925,191305072.47694758
2,5, 1, 5, 0, 9, 0.00,60.00,Thursday
213,189339202.8939797
5925,189339202.89397976
2,5, 1, 5, 0,10, 0.00,60.00,Thursday
213,152701372.81378672
5925,152701372.81378672
2,5, 1, 5, 0,11, 0.00,60.00,Thursday
213,167602061.31287518
5925,167602061.3128752
2,5, 1, 5, 0,12, 0.00,60.00,Thursday
213,138249410.88007697
5925,138249410.88007697
2,5, 1, 5, 0,13, 0.00,60.00,Thursday
213,130150924.77294429
5925,130150924.77294427
2,5, 1, 5, 0,14, 0.00,60.00,Thursday
213,126648662.95937666
5925,126648662.95937666
2,5, 1, 5, 0,15, 0.00,60.00,Thursday
213,132251116.7341098
5925,132251116.73410979
2,5, 1, 5, 0,16, 0.00,60.00,Thursday
213,123567501.24541834
5925,123567501.24541834
2,5, 1, 5, 0,17, 0.00,60.00,Thursday
213,158011854.56738526
5925,158011854.56738535
2,5, 1, 5, 0,18, 0.00,60.00,Thursday
213,193496459.29871804
5925,193496459.29871836
2,5, 1, 5, 0,19, 0.00,60.00,Thursday
213,235365084.55894578
5925,235365084.55894613
2,5, 1, 5, 0,20, 0.00,60.00,Thursday
213,232856276.16542837
5925,232856276.16542873
2,5, 1, 5, 0,21, 0.00,60.00,Thursday
213,209037740.52396536
5925,209037740.5239657
2,5, 1, 5, 0,22, 0.00,60.00,Thursday
213,193404429.43055788
5925,193404429.43055806
2,5, 1, 5, 0,23, 0.00,60.00,Thursday
213,164238496.15238106
5925,164238496.15238103
2,5, 1, 5, 0,24, 0.00,60.00,Thursday
213,125557518.47658324
5925,125557518.4765832
2,6, 1, 6, 0, 1, 0.00,60.00,Friday
213,100504794.87941107
5925,100504794.87941106
2,6, 1, 6, 0, 2, 0.00,60.00,Friday
213,90918500.80530769
5925,90918500.80530769
2,6, 1, 6, 0, 3, 0.00,60.00,Friday
213,90373677.45485257
5925,90373677.45485255
2,6, 1, 6, 0, 4, 0.00,60.00,Friday
213,95949732.52809516
5925,95949732.52809514
2,6, 1, 6, 0, 5, 0.00,60.00,Friday
213,92816223.86741373
5925,92816223.8674137
2,6, 1, 6, 0, 6, 0.00,60.00,Friday
213,120281324.4989274
5925,120281324.49892738
2,6, 1, 6, 0, 7, 0.00,60.00,Friday
213,197868947.03277263
5925,197868947.03277266
2,6, 1, 6, 0, 8, 0.00,60.00,Friday
213,190743259.18130726
5925,190743259.18130726
2,6, 1, 6, 0, 9, 0.00,60.00,Friday
213,178901917.554894
5925,178901917.554894
2,6, 1, 6, 0,10, 0.00,60.00,Friday
213,170360601.22709492
5925,170360601.22709492
2,6, 1, 6, 0,11, 0.00,60.00,Friday
213,141943832.80408975
5925,141943832.80408973
2,6, 1, 6, 0,12, 0.00,60.00,Friday
213,140558068.88907441
5925,140558068.8890744
2,6, 1, 6, 0,13, 0.00,60.00,Friday
213,131143089.00062138
5925,131143089.00062138
2,6, 1, 6, 0,14, 0.00,60.00,Friday
213,115874733.77713823
5925,115874733.77713823
2,6, 1, 6, 0,15, 0.00,60.00,Friday
213,128977424.62633893
5925,128977424.62633891
2,6, 1, 6, 0,16, 0.00,60.00,Friday
213,132196020.41860518
5925,132196020.41860515
2,6, 1, 6, 0,17, 0.00,60.00,Friday
213,141732734.30798313
5925,141732734.30798313
2,6, 1, 6, 0,18, 0.00,60.00,Friday
213,202238645.10389376
5925,202238645.1038941
2,6, 1, 6, 0,19, 0.00,60.00,Friday
213,218291167.07924587
5925,218291167.07924622
2,6, 1, 6, 0,20, 0.00,60.00,Friday
213,228311269.72847253
5925,228311269.7284729
2,6, 1, 6, 0,21, 0.00,60.00,Friday
213,207907972.27857897
5925,207907972.27857932
2,6, 1, 6, 0,22, 0.00,60.00,Friday
213,184122413.3424009
5925,184122413.3424011
2,6, 1, 6, 0,23, 0.00,60.00,Friday
213,170612029.2674292
5925,170612029.26742917
2,6, 1, 6, 0,24, 0.00,60.00,Friday
213,125593624.35459901
5925,125593624.35459901
2,7, 1, 7, 0, 1, 0.00,60.00,Saturday
213,101185473.13842332
5925,101185473.13842332
2,7, 1, 7, 0, 2, 0.00,60.00,Saturday
213,93539145.34568772
5925,93539145.34568773
2,7, 1, 7, 0, 3, 0.00,60.00,Saturday
213,98752608.57260706
5925,98752608.57260707
2,7, 1, 7, 0, 4, 0.00,60.00,Saturday
213,92188223.47078943
5925,92188223.47078942
2,7, 1, 7, 0, 5, 0.00,60.00,Saturday
213,89269871.17331815
5925,89269871.17331815
2,7, 1, 7, 0, 6, 0.00,60.00,Saturday
213,139159772.36088192
5925,139159772.36088192
2,7, 1, 7, 0, 7, 0.00,60.00,Saturday
213,185134137.02683538
5925,185134137.02683538
2,7, 1, 7, 0, 8, 0.00,60.00,Saturday
213,204352000.8324778
5925,204352000.83247775
2,7, 1, 7, 0, 9, 0.00,60.00,Saturday
213,172197393.63886502
5925,172197393.63886505
2,7, 1, 7, 0,10, 0.00,60.00,Saturday
213,169309906.18424806
5925,169309906.18424812
2,7, 1, 7, 0,11, 0.00,60.00,Saturday
213,143294309.88955706
5925,143294309.88955706
2,7, 1, 7, 0,12, 0.00,60.00,Saturday
213,142672148.37821686
5925,142672148.3782168
2,7, 1, 7, 0,13, 0.00,60.00,Saturday
213,122921980.78656249
5925,122921980.78656249
2,7, 1, 7, 0,14, 0.00,60.00,Saturday
213,126438211.3494008
5925,126438211.34940079
2,7, 1, 7, 0,15, 0.00,60.00,Saturday
213,104479639.63872875
5925,104479639.63872875
2,7, 1, 7, 0,16, 0.00,60.00,Saturday
213,130046701.41246954
5925,130046701.41246954
2,7, 1, 7, 0,17, 0.00,60.00,Saturday
213,158613277.02417353
5925,158613277.02417356
2,7, 1, 7, 0,18, 0.00,60.00,Saturday
213,191298612.1979597
5925,191298612.19796
2,7, 1, 7, 0,19, 0.00,60.00,Saturday
213,233626219.83632144
5925,233626219.83632177
2,7, 1, 7, 0,20, 0.00,60.00,Saturday
213,211088688.27512014
5925,211088688.2751205
2,7, 1, 7, 0,21, 0.00,60.00,Saturday
213,227735532.343663
5925,227735532.34366333
2,7, 1, 7, 0,22, 0.00,60.00,Saturday
213,185584507.43628195
5925,185584507.43628216
2,7, 1, 7, 0,23, 0.00,60.00,Saturday
213,164052252.9436803
5925,164052252.94368026
2,7, 1, 7, 0,24, 0.00,60.00,Saturday
213,125979485.715627
5925,125979485.715627
2,8, 1, 8, 0, 1, 0.00,60.00,Sunday
213,94739981.95778447
5925,94739981.95778447
2,8, 1, 8, 0, 2, 0.00,60.00,Sunday
213,105846654.6445848
5925,105846654.64458482
2,8, 1, 8, 0, 3, 0.00,60.00,Sunday
213,85122839.91175064
5925,85122839.91175067
2,8, 1, 8, 0, 4, 0.00,60.00,Sunday
213,84847285.7547939
5925,84847285.75479391
2,8, 1, 8, 0, 5, 0.00,60.00,Sunday
213,108965657.18119168
5925,108965657.18119168
2,8, 1, 8, 0, 6, 0.00,60.00,Sunday
213,128819796.83964823
5925,128819796.83964823
2,8, 1, 8, 0, 7, 0.00,60.00,Sunday
213,194681970.0129302
5925,194681970.0129302
2,8, 1, 8, 0, 8, 0.00,60.00,Sunday
213,194665927.8124428
5925,194665927.8124428
2,8, 1, 8, 0, 9, 0.00,60.00,Sunday
213,181514960.75411525
5925,181514960.75411522
2,8, 1, 8, 0,10, 0.00,60.00,Sunday
213,163302967.29964355
5925,163302967.29964355
2,8, 1, 8, 0,11, 0.00,60.00,Sunday
213,143877171.7555602
5925,143877171.75556016
2,8, 1, 8, 0,12, 0.00,60.00,Sunday
213,134225119.34109205
5925,134225119.34109205
2,8, 1, 8, 0,13, 0.00,60.00,Sunday
213,129985020.27200936
5925,129985020.27200936
2,8, 1, 8, 0,14, 0.00,60.00,Sunday
213,111669191.3906332
5925,111669191.39063315
2,8, 1, 8, 0,15, 0.00,60.00,Sunday
213,117027020.96569562
5925,117027020.9656956
2,8, 1, 8, 0,16, 0.00,60.00,Sunday
213,118152521.79461575
5925,118152521.79461573
2,8, 1, 8, 0,17, 0.00,60.00,Sunday
213,147335089.0121655
5925,147335089.01216546
2,8, 1, 8, 0,18, 0.00,60.00,Sunday
213,204478693.80072603
5925,204478693.8007264
2,8, 1, 8, 0,19, 0.00,60.00,Sunday
213,214790697.66257918
5925,214790697.66257948
2,8, 1, 8, 0,20, 0.00,60.00,Sunday
213,229101468.43226123
5925,229101468.4322616
2,8, 1, 8, 0,21, 0.00,60.00,Sunday
213,205969900.19907078
5925,205969900.19907114
2,8, 1, 8, 0,22, 0.00,60.00,Sunday
213,191081028.45974725
5925,191081028.45974746
2,8, 1, 8, 0,23, 0.00,60.00,Sunday
213,162611024.0822835
5925,162611024.08228347
2,8, 1, 8, 0,24, 0.00,60.00,Sunday
213,124693990.45925413
5925,124693990.45925412
2,9, 1, 9, 0, 1, 0.00,60.00,Monday
213,106799734.06886801
5925,106799734.06886801
2,9, 1, 9, 0, 2, 0.00,60.00,Monday
213,85405028.81478916
5925,85405028.81478918
2,9, 1, 9, 0, 3, 0.00,60.00,Monday
213,101230741.79436249
5925,101230741.79436249
2,9, 1, 9, 0, 4, 0.00,60.00,Monday
213,87530498.3592262
5925,87530498.3592262
2,9, 1, 9, 0, 5, 0.00,60.00,Monday
213,95733569.00350451
5925,95733569.00350451
2,9, 1, 9, 0, 6, 0.00,60.00,Monday
213,128803268.89556545
5925,128803268.89556545
2,9, 1, 9, 0, 7, 0.00,60.00,Monday
213,195708979.99027145
5925,195708979.99027145
2,9, 1, 9, 0, 8, 0.00,60.00,Monday
213,192519115.99668503
5925,192519115.99668503
2,9, 1, 9, 0, 9, 0.00,60.00,Monday
213,189490258.65506133
5925,189490258.65506133
2,9, 1, 9, 0,10, 0.00,60.00,Monday
213,165085031.2737472
5925,165085031.2737472
2,9, 1, 9, 0,11, 0.00,60.00,Monday
213,150613856.18472654
5925,150613856.18472654
2,9, 1, 9, 0,12, 0.00,60.00,Monday
213,132608188.70276007
5925,132608188.70276007
2,9, 1, 9, 0,13, 0.00,60.00,Monday
213,137051480.07279697
5925,137051480.072797
2,9, 1, 9, 0,14, 0.00,60.00,Monday
213,128623253.34147033
5925,128623253.34147033
2,9, 1, 9, 0,15, 0.00,60.00,Monday
213,116225394.26858449
5925,116225394.26858446
2,9, 1, 9, 0,16, 0.00,60.00,Monday
213,136872048.44770473
5925,136872048.4477047
2,9, 1, 9, 0,17, 0.00,60.00,Monday
213,151109977.52864316
5925,151109977.52864316
2,9, 1, 9, 0,18, 0.00,60.00,Monday
213,191790477.91431183
5925,191790477.91431218
2,9, 1, 9, 0,19, 0.00,60.00,Monday
213,226211389.9255642
5925,226211389.92556453
2,9, 1, 9, 0,20, 0.00,60.00,Monday
213,216386501.7581562
5925,216386501.75815654
2,9, 1, 9, 0,21, 0.00,60.00,Monday
213,215216404.87952545
5925,215216404.87952578
2,9, 1, 9, 0,22, 0.00,60.00,Monday
213,191487154.7375539
5925,191487154.7375541
2,9, 1, 9, 0,23, 0.00,60.00,Monday
213,160018225.07454216
5925,160018225.07454216
2,9, 1, 9, 0,24, 0.00,60.00,Monday
213,124978582.87733977
5925,124978582.87733975
2,10, 1,10, 0, 1, 0.00,60.00,Tuesday
213,98158108.780367
5925,98158108.78036699
2,10, 1,10, 0, 2, 0.00,60.00,Tuesday
213,95012123.74781533
5925,95012123.74781533
2,10, 1,10, 0, 3, 0.00,60.00,Tuesday
213,94878367.42806245
5925,94878367.42806245
2,10, 1,10, 0, 4, 0.00,60.00,Tuesday
213,84110419.39037521
5925,84110419.39037521
2,10, 1,10, 0, 5, 0.00,60.00,Tuesday
213,107494704.06681426
5925,107494704.06681426
2,10, 1,10, 0, 6, 0.00,60.00,Tuesday
213,125947288.1308027
5925,125947288.13080269
2,10, 1,10, 0, 7, 0.00,60.00,Tuesday
213,197967385.98829043
5925,197967385.98829043
2,10, 1,10, 0, 8, 0.00,60.00,Tuesday
213,192738534.99254665
5925,192738534.99254662
2,10, 1,10, 0, 9, 0.00,60.00,Tuesday
213,185659340.9479274
5925,185659340.94792742
2,10, 1,10, 0,10, 0.00,60.00,Tuesday
213,161072588.72703582
5925,161072588.72703582
2,10, 1,10, 0,11, 0.00,60.00,Tuesday
213,156213015.52602556
5925,156213015.52602553
2,10, 1,10, 0,12, 0.00,60.00,Tuesday
213,133870812.36484648
5925,133870812.36484648
2,10, 1,10, 0,13, 0.00,60.00,Tuesday
213,130955875.3079824
5925,130955875.30798239
2,10, 1,10, 0,14, 0.00,60.00,Tuesday
213,118500489.18256587
5925,118500489.18256587
2,10, 1,10, 0,15, 0.00,60.00,Tuesday
213,128063877.54807171
5925,128063877.54807171
2,10, 1,10, 0,16, 0.00,60.00,Tuesday
213,128141875.10700163
5925,128141875.1070016
2,10, 1,10, 0,17, 0.00,60.00,Tuesday
213,148153917.5139541
5925,148153917.51395407
2,10, 1,10, 0,18, 0.00,60.00,Tuesday
213,196261204.93810263
5925,196261204.93810293
2,10, 1,10, 0,19, 0.00,60.00,Tuesday
213,217447843.86251324
5925,217447843.8625136
2,10, 1,10, 0,20, 0.00,60.00,Tuesday
213,223916668.6885646
5925,223916668.6885649
2,10, 1,10, 0,21, 0.00,60.00,Tuesday
213,204548473.6614878
5925,204548473.66148812
2,10, 1,10, 0,22, 0.00,60.00,Tuesday
213,186981955.8393423
5925,186981955.83934242
2,10, 1,10, 0,23, 0.00,60.00,Tuesday
213,159654853.6870072
5925,159654853.6870072
2,10, 1,10, 0,24, 0.00,60.00,Tuesday
213,120386085.63774246
5925,120386085.63774249
2,11, 1,11, 0, 1, 0.00,60.00,Wednesday
213,95082657.36357431
5925,95082657.36357431
2,11, 1,11, 0, 2, 0.00,60.00,Wednesday
213,86768838.60131823
5925,86768838.60131821
2,11, 1,11, 0, 3, 0.00,60.00,Wednesday
213,92356846.39496456
5925,92356846.39496455
2,11, 1,11, 0, 4, 0.00,60.00,Wednesday
213,85924069.0725642
5925,85924069.07256418
2,11, 1,11, 0, 5, 0.00,60.00,Wednesday
213,86043230.39125666
5925,86043230.39125666
2,11, 1,11, 0, 6, 0.00,60.00,Wednesday
213,128920390.82157606
5925,128920390.82157606
2,11, 1,11, 0, 7, 0.00,60.00,Wednesday
213,182510509.93478125
5925,182510509.93478125
2,11, 1,11, 0, 8, 0.00,60.00,Wednesday
213,191718991.2265442
5925,191718991.2265442
2,11, 1,11, 0, 9, 0.00,60.00,Wednesday
213,177795973.92777842
5925,177795973.92777842
2,11, 1,11, 0,10, 0.00,60.00,Wednesday
213,166511050.1475577
5925,166511050.14755765
2,11, 1,11, 0,11, 0.00,60.00,Wednesday
213,151736669.08817112
5925,151736669.08817112
2,11, 1,11, 0,12, 0.00,60.00,Wednesday
213,142411465.40263972
5925,142411465.40263975
2,11, 1,11, 0,13, 0.00,60.00,Wednesday
213,132896500.62086153
5925,132896500.62086152
2,11, 1,11, 0,14, 0.00,60.00,Wednesday
213,125833280.4732037
5925,125833280.47320372
2,11, 1,11, 0,15, 0.00,60.00,Wednesday
213,124093678.0387885
5925,124093678.0387885
2,11, 1,11, 0,16, 0.00,60.00,Wednesday
213,138722730.32405156
5925,138722730.32405153
2,11, 1,11, 0,17, 0.00,60.00,Wednesday
213,157399955.45787355
5925,157399955.4578737
2,11, 1,11, 0,18, 0.00,60.00,Wednesday
213,198565512.1663159
5925,198565512.16631627
2,11, 1,11, 0,19, 0.00,60.00,Wednesday
213,231915417.35909057
5925,231915417.35909092
2,11, 1,11, 0,20, 0.00,60.00,Wednesday
213,228722123.30307868
5925,228722123.30307898
2,11, 1,11, 0,21, 0.00,60.00,Wednesday
213,212496770.08457372
5925,212496770.08457407
2,11, 1,11, 0,22, 0.00,60.00,Wednesday
213,192385635.64195362
5925,192385635.64195377
2,11, 1,11, 0,23, 0.00,60.00,Wednesday
213,165040368.6818425
5925,165040368.6818425
2,11, 1,11, 0,24, 0.00,60.00,Wednesday
213,126373791.655998
5925,126373791.655998
2,12, 1,12, 0, 1, 0.00,60.00,Thursday
213,95010789.6489498
5925,95010789.6489498
2,12, 1,12, 0, 2, 0.00,60.00,Thursday
213,98784065.75572722
5925,98784065.75572722
2,12, 1,12, 0, 3, 0.00,60.00,Thursday
213,91530450.42007717
5925,91530450.42007717
2,12, 1,12, 0, 4, 0.00,60.00,Thursday
213,94369328.61996064
5925,94369328.61996062
2,12, 1,12, 0, 5, 0.00,60.00,Thursday
213,97342297.15694068
5925,97342297.15694067
2,12, 1,12, 0, 6, 0.00,60.00,Thursday
213,128220347.3934017
5925,128220347.39340171
2,12, 1,12, 0, 7, 0.00,60.00,Thursday
213,193963608.5593142
5925,193963608.55931422
2,12, 1,12, 0, 8, 0.00,60.00,Thursday
213,194333575.2480567
5925,194333575.24805674
2,12, 1,12, 0, 9, 0.00,60.00,Thursday
213,185954511.69596243
5925,185954511.69596246
2,12, 1,12, 0,10, 0.00,60.00,Thursday
213,166505488.33548203
5925,166505488.33548206
2,12, 1,12, 0,11, 0.00,60.00,Thursday
213,156119158.2129904
5925,156119158.2129904
2,12, 1,12, 0,12, 0.00,60.00,Thursday
213,144182736.2278813
5925,144182736.22788128
2,12, 1,12, 0,13, 0.00,60.00,Thursday
213,138716672.85090542
5925,138716672.8509054
2,12, 1,12, 0,14, 0.00,60.00,Thursday
213,131943911.23596042
5925,131943911.23596045
2,12, 1,12, 0,15, 0.00,60.00,Thursday
213,126925824.1282733
5925,126925824.12827331
2,12, 1,12, 0,16, 0.00,60.00,Thursday
213,136586097.30263186
5925,136586097.30263186
2,12, 1,12, 0,17, 0.00,60.00,Thursday
213,160443707.90978718
5925,160443707.9097874
2,12, 1,12, 0,18, 0.00,60.00,Thursday
213,204044575.32558233
5925,204044575.32558262
2,12, 1,12, 0,19, 0.00,60.00,Thursday
213,230406710.91523382
5925,230406710.91523415
2,12, 1,12, 0,20, 0.00,60.00,Thursday
213,227354106.6747849
5925,227354106.67478526
2,12, 1,12, 0,21, 0.00,60.00,Thursday
213,216866769.70236567
5925,216866769.70236593
2,12, 1,12, 0,22, 0.00,60.00,Thursday
213,194280675.19407424
5925,194280675.19407445
2,12, 1,12, 0,23, 0.00,60.00,Thursday
213,159407267.97433034
5925,159407267.97433034
2,12, 1,12, 0,24, 0.00,60.00,Thursday
213,133408634.08293676
5925,133408634.08293676
2,13, 1,13, 0, 1, 0.00,60.00,Friday
213,99566212.85824853
5925,99566212.85824852
2,13, 1,13, 0, 2, 0.00,60.00,Friday
213,92649961.42284063
5925,92649961.42284063
2,13, 1,13, 0, 3, 0.00,60.00,Friday
213,96368400.13516268
5925,96368400.13516268
2,13, 1,13, 0, 4, 0.00,60.00,Friday
213,92245917.44253051
5925,92245917.44253051
2,13, 1,13, 0, 5, 0.00,60.00,Friday
213,99044335.80363719
5925,99044335.80363718
2,13, 1,13, 0, 6, 0.00,60.00,Friday
213,131535915.56982134
5925,131535915.56982133
2,13, 1,13, 0, 7, 0.00,60.00,Friday
213,192021039.43633178
5925,192021039.43633175
2,13, 1,13, 0, 8, 0.00,60.00,Friday
213,197062339.9419336
5925,197062339.9419336
2,13, 1,13, 0, 9, 0.00,60.00,Friday
213,184192297.20343608
5925,184192297.20343608
2,13, 1,13, 0,10, 0.00,60.00,Friday
213,166355215.66406453
5925,166355215.66406453
2,13, 1,13, 0,11, 0.00,60.00,Friday
213,159110949.03388098
5925,159110949.03388098
2,13, 1,13, 0,12, 0.00,60.00,Friday
213,147074006.0049019
5925,147074006.0049019
2,13, 1,13, 0,13, 0.00,60.00,Friday
213,135885898.01792964
5925,135885898.01792964
2,13, 1,13, 0,14, 0.00,60.00,Friday
213,130954949.21976498
5925,130954949.21976496
2,13, 1,13, 0,15, 0.00,60.00,Friday
213,128112948.78270064
5925,128112948.78270063
2,13, 1,13, 0,16, 0.00,60.00,Friday
213,133435731.33045164
5925,133435731.33045165
2,13, 1,13, 0,17, 0.00,60.00,Friday
213,162419591.95104226
5925,162419591.95104247
2,13, 1,13, 0,18, 0.00,60.00,Friday
213,202326837.45583028
5925,202326837.45583066
2,13, 1,13, 0,19, 0.00,60.00,Friday
213,234184745.80825096
5925,234184745.80825132
2,13, 1,13, 0,20, 0.00,60.00,Friday
213,228351311.31641695
5925,228351311.31641728
2,13, 1,13, 0,21, 0.00,60.00,Friday
213,216987454.36255437
5925,216987454.3625547
2,13, 1,13, 0,22, 0.00,60.00,Friday
213,193182878.67467278
5925,193182878.67467296
2,13, 1,13, 0,23, 0.00,60.00,Friday
213,165581738.13239187
5925,165581738.13239184
2,13, 1,13, 0,24, 0.00,60.00,Friday
213,127793842.31635301
5925,127793842.31635301
2,14, 1,14, 0, 1, 0.00,60.00,Saturday
213,105000593.95415345
5925,105000593.95415345
2,14, 1,14, 0, 2, 0.00,60.00,Saturday
213,94890758.66102387
5925,94890758.66102389
2,14, 1,14, 0, 3, 0.00,60.00,Saturday
213,86255993.73695841
5925,86255993.73695843
2,14, 1,14, 0, 4, 0.00,60.00,Saturday
213,98687526.3791306
5925,98687526.3791306
2,14, 1,14, 0, 5, 0.00,60.00,Saturday
213,96071087.6235936
5925,96071087.6235936
2,14, 1,14, 0, 6, 0.00,60.00,Saturday
213,129261735.53005508
5925,129261735.53005508
2,14, 1,14, 0, 7, 0.00,60.00,Saturday
213,194918085.8626102
5925,194918085.8626102
2,14, 1,14, 0, 8, 0.00,60.00,Saturday
213,198072296.07294494
5925,198072296.07294494
2,14, 1,14, 0, 9, 0.00,60.00,Saturday
213,178385187.50061488
5925,178385187.5006149
2,14, 1,14, 0,10, 0.00,60.00,Saturday
213,167856730.84693182
5925,167856730.84693182
2,14, 1,14, 0,11, 0.00,60.00,Saturday
213,148092863.45114237
5925,148092863.45114237
2,14, 1,14, 0,12, 0.00,60.00,Saturday
213,144652018.02738675
5925,144652018.02738675
2,14, 1,14, 0,13, 0.00,60.00,Saturday
213,136277251.73451248
5925,136277251.73451248
2,14, 1,14, 0,14, 0.00,60.00,Saturday
213,129627283.26736797
5925,129627283.26736796
2,14, 1,14, 0,15, 0.00,60.00,Saturday
213,120184234.76033667
5925,120184234.76033667
2,14, 1,14, 0,16, 0.00,60.00,Saturday
213,135373317.8462579
5925,135373317.84625793
2,14, 1,14, 0,17, 0.00,60.00,Saturday
213,162632207.35740662
5925,162632207.35740668
2,14, 1,14, 0,18, 0.00,60.00,Saturday
213,200880375.22436133
5925,200880375.2243617
2,14, 1,14, 0,19, 0.00,60.00,Saturday
213,235017316.5355548
5925,235017316.53555518
2,14, 1,14, 0,20, 0.00,60.00,Saturday
213,221680932.3309604
5925,221680932.3309607
2,14, 1,14, 0,21, 0.00,60.00,Saturday
213,225277612.467355
5925,225277612.4673553
2,14, 1,14, 0,22, 0.00,60.00,Saturday
213,191864919.64418957
5925,191864919.64418975
2,14, 1,14, 0,23, 0.00,60.00,Saturday
213,167455772.78295752
5925,167455772.7829575
2,14, 1,14, 0,24, 0.00,60.00,Saturday
213,126214828.92483184
5925,126214828.92483185
2,15, 1,15, 0, 1, 0.00,60.00,Sunday
213,99464287.2579075
5925,99464287.2579075
2,15, 1,15, 0, 2, 0.00,60.00,Sunday
213,99489671.99845658
5925,99489671.99845658
2,15, 1,15, 0, 3, 0.00,60.00,Sunday
213,92686902.29241465
5925,92686902.29241465
2,15, 1,15, 0, 4, 0.00,60.00,Sunday
213,88571505.49082464
5925,88571505.49082462
2,15, 1,15, 0, 5, 0.00,60.00,Sunday
213,100715571.49885763
5925,100715571.49885763
2,15, 1,15, 0, 6, 0.00,60.00,Sunday
213,128715936.41128665
5925,128715936.41128665
2,15, 1,15, 0, 7, 0.00,60.00,Sunday
213,193831697.5913618
5925,193831697.59136176
2,15, 1,15, 0, 8, 0.00,60.00,Sunday
213,196797340.49475738
5925,196797340.4947574
2,15, 1,15, 0, 9, 0.00,60.00,Sunday
213,177690483.26088977
5925,177690483.26088977
2,15, 1,15, 0,10, 0.00,60.00,Sunday
213,168987117.6319999
5925,168987117.63199988
2,15, 1,15, 0,11, 0.00,60.00,Sunday
213,156054402.0324304
5925,156054402.03243038
2,15, 1,15, 0,12, 0.00,60.00,Sunday
213,141865491.11474216
5925,141865491.1147422
2,15, 1,15, 0,13, 0.00,60.00,Sunday
213,133600867.8376276
5925,133600867.83762762
2,15, 1,15, 0,14, 0.00,60.00,Sunday
213,124943047.95364872
5925,124943047.95364869
2,15, 1,15, 0,15, 0.00,60.00,Sunday
213,131367420.84157825
5925,131367420.84157825
2,15, 1,15, 0,16, 0.00,60.00,Sunday
213,132588682.86637476
5925,132588682.86637476
2,15, 1,15, 0,17, 0.00,60.00,Sunday
213,156956456.04104355
5925,156956456.04104367
2,15, 1,15, 0,18, 0.00,60.00,Sunday
213,204657354.2435768