Program Version,EnergyPlus, Version 26.1.0-6f2e40d102, YMD=2026.04.15 00:25
1,5,Environment Title[],Latitude[deg],Longitude[deg],Time Zone[],Elevation[m]
2,8,Day of Simulation[],Month[],Day of Month[],DST Indicator[1=yes 0=no],Hour[],StartMinute[],EndMinute[],DayType
3,5,Cumulative Day of Simulation[],Month[],Day of Month[],DST Indicator[1=yes 0=no],DayType  ! When Daily Meters Requested
4,2,Cumulative Days of Simulation[],Month[]  ! When Monthly Meters Requested
5,1,Cumulative Days of Simulation[] ! When Run Period Meters Requested
6,1,Calendar Year of Simulation[] ! When Annual Meters Requested
213,1,Electricity:Facility [J] !Hourly
6085,1,ElectricityNet:Facility [J] !Hourly
End of Data Dictionary
1,RUNPERIOD 1,  28.11, 112.79,   8.00, 120.00
2,1, 1, 1, 0, 1, 0.00,60.00,Holiday
213,260962507.26631424
6085,260962507.26631427
2,1, 1, 1, 0, 2, 0.00,60.00,Holiday
213,248827864.69636855
6085,248827864.69636843
2,1, 1, 1, 0, 3, 0.00,60.00,Holiday
213,247626734.04206
6085,247626734.0420599
2,1, 1, 1, 0, 4, 0.00,60.00,Holiday
213,247118249.58390504
6085,247118249.58390492
2,1, 1, 1, 0, 5, 0.00,60.00,Holiday
213,250132289.40444648
6085,250132289.40444642
2,1, 1, 1, 0, 6, 0.00,60.00,Holiday
213,265445243.98504508
6085,265445243.9850449
2,1, 1, 1, 0, 7, 0.00,60.00,Holiday
213,286146415.1662145
6085,286146415.1662143
2,1, 1, 1, 0, 8, 0.00,60.00,Holiday
213,282970163.3082295
6085,282970163.3082293
2,1, 1, 1, 0, 9, 0.00,60.00,Holiday
213,274621811.6660098
6085,274621811.66600955
2,1, 1, 1, 0,10, 0.00,60.00,Holiday
213,268934820.64071393
6085,268934820.6407138
2,1, 1, 1, 0,11, 0.00,60.00,Holiday
213,257229322.9866833
6085,257229322.98668313
2,1, 1, 1, 0,12, 0.00,60.00,Holiday
213,270079549.6488406
6085,270079549.6488405
2,1, 1, 1, 0,13, 0.00,60.00,Holiday
213,270011101.4913057
6085,270011101.4913055
2,1, 1, 1, 0,14, 0.00,60.00,Holiday
213,259502682.15854132
6085,259502682.1585412
2,1, 1, 1, 0,15, 0.00,60.00,Holiday
213,267858688.06088755
6085,267858688.06088734
2,1, 1, 1, 0,16, 0.00,60.00,Holiday
213,280716112.4586869
6085,280716112.45868665
2,1, 1, 1, 0,17, 0.00,60.00,Holiday
213,301351444.5359154
6085,301351444.5359155
2,1, 1, 1, 0,18, 0.00,60.00,Holiday
213,355552773.384115
6085,355552773.38411546
2,1, 1, 1, 0,19, 0.00,60.00,Holiday
213,371078847.2750095
6085,371078847.27501
2,1, 1, 1, 0,20, 0.00,60.00,Holiday
213,358162470.68346846
6085,358162470.68346894
2,1, 1, 1, 0,21, 0.00,60.00,Holiday
213,352965706.9993534
6085,352965706.9993538
2,1, 1, 1, 0,22, 0.00,60.00,Holiday
213,334524158.6955001
6085,334524158.6955003
2,1, 1, 1, 0,23, 0.00,60.00,Holiday
213,302638561.0233015
6085,302638561.02330124
2,1, 1, 1, 0,24, 0.00,60.00,Holiday
213,283523642.6418196
6085,283523642.6418194
2,2, 1, 2, 0, 1, 0.00,60.00,Monday
213,266245225.0111583
6085,266245225.0111583
2,2, 1, 2, 0, 2, 0.00,60.00,Monday
213,256575150.9980188
6085,256575150.99801865
2,2, 1, 2, 0, 3, 0.00,60.00,Monday
213,253741283.49391976
6085,253741283.49391964
2,2, 1, 2, 0, 4, 0.00,60.00,Monday
213,253124268.85805666
6085,253124268.85805658
2,2, 1, 2, 0, 5, 0.00,60.00,Monday
213,256596847.90112048
6085,256596847.90112036
2,2, 1, 2, 0, 6, 0.00,60.00,Monday
213,272199500.9248972
6085,272199500.924897
2,2, 1, 2, 0, 7, 0.00,60.00,Monday
213,297603617.2411611
6085,297603617.2411609
2,2, 1, 2, 0, 8, 0.00,60.00,Monday
213,296499311.5649049
6085,296499311.56490475
2,2, 1, 2, 0, 9, 0.00,60.00,Monday
213,294289976.71614695
6085,294289976.7161467
2,2, 1, 2, 0,10, 0.00,60.00,Monday
213,288569846.8335538
6085,288569846.83355355
2,2, 1, 2, 0,11, 0.00,60.00,Monday
213,279485539.98010737
6085,279485539.9801071
2,2, 1, 2, 0,12, 0.00,60.00,Monday
213,281773560.38603866
6085,281773560.3860384
2,2, 1, 2, 0,13, 0.00,60.00,Monday
213,279403401.2533312
6085,279403401.25333095
2,2, 1, 2, 0,14, 0.00,60.00,Monday
213,278008112.44866425
6085,278008112.44866407
2,2, 1, 2, 0,15, 0.00,60.00,Monday
213,273128049.60263175
6085,273128049.6026315
2,2, 1, 2, 0,16, 0.00,60.00,Monday
213,278731965.49211574
6085,278731965.4921155
2,2, 1, 2, 0,17, 0.00,60.00,Monday
213,312942458.78786117
6085,312942458.7878613
2,2, 1, 2, 0,18, 0.00,60.00,Monday
213,360484042.0850352
6085,360484042.0850357
2,2, 1, 2, 0,19, 0.00,60.00,Monday
213,378990590.73676175
6085,378990590.7367621
2,2, 1, 2, 0,20, 0.00,60.00,Monday
213,369851524.5986711
6085,369851524.5986715
2,2, 1, 2, 0,21, 0.00,60.00,Monday
213,362536056.96048933
6085,362536056.96048975
2,2, 1, 2, 0,22, 0.00,60.00,Monday
213,342028814.58817047
6085,342028814.5881706
2,2, 1, 2, 0,23, 0.00,60.00,Monday
213,310526337.3791066
6085,310526337.37910634
2,2, 1, 2, 0,24, 0.00,60.00,Monday
213,291466292.4435162
6085,291466292.44351596
2,3, 1, 3, 0, 1, 0.00,60.00,Tuesday
213,274358220.54239166
6085,274358220.5423916
2,3, 1, 3, 0, 2, 0.00,60.00,Tuesday
213,265619222.843665
6085,265619222.84366482
2,3, 1, 3, 0, 3, 0.00,60.00,Tuesday
213,263458463.19964048
6085,263458463.19964036
2,3, 1, 3, 0, 4, 0.00,60.00,Tuesday
213,262718033.10838985
6085,262718033.10838974
2,3, 1, 3, 0, 5, 0.00,60.00,Tuesday
213,266192495.63226524
6085,266192495.63226515
2,3, 1, 3, 0, 6, 0.00,60.00,Tuesday
213,287829860.7691033
6085,287829860.7691031
2,3, 1, 3, 0, 7, 0.00,60.00,Tuesday
213,310456179.1010039
6085,310456179.1010037
2,3, 1, 3, 0, 8, 0.00,60.00,Tuesday
213,305041935.96988356
6085,305041935.9698834
2,3, 1, 3, 0, 9, 0.00,60.00,Tuesday
213,302778999.4276749
6085,302778999.4276747
2,3, 1, 3, 0,10, 0.00,60.00,Tuesday
213,294597535.9352402
6085,294597535.93524
2,3, 1, 3, 0,11, 0.00,60.00,Tuesday
213,286675254.6749877
6085,286675254.67498744
2,3, 1, 3, 0,12, 0.00,60.00,Tuesday
213,289182041.4299522
6085,289182041.42995197
2,3, 1, 3, 0,13, 0.00,60.00,Tuesday
213,284910078.97837293
6085,284910078.97837275
2,3, 1, 3, 0,14, 0.00,60.00,Tuesday
213,283324283.3458561
6085,283324283.34585583
2,3, 1, 3, 0,15, 0.00,60.00,Tuesday
213,282382079.1073373
6085,282382079.1073371
2,3, 1, 3, 0,16, 0.00,60.00,Tuesday
213,290738396.5381022
6085,290738396.5381021
2,3, 1, 3, 0,17, 0.00,60.00,Tuesday
213,325129845.0491154
6085,325129845.0491156
2,3, 1, 3, 0,18, 0.00,60.00,Tuesday
213,372528567.48888534
6085,372528567.48888576
2,3, 1, 3, 0,19, 0.00,60.00,Tuesday
213,387371956.2771485
6085,387371956.2771491
2,3, 1, 3, 0,20, 0.00,60.00,Tuesday
213,375277621.4375375
6085,375277621.4375379
2,3, 1, 3, 0,21, 0.00,60.00,Tuesday
213,367942280.4475993
6085,367942280.44759965
2,3, 1, 3, 0,22, 0.00,60.00,Tuesday
213,346408741.4664066
6085,346408741.4664067
2,3, 1, 3, 0,23, 0.00,60.00,Tuesday
213,313164164.46432155
6085,313164164.46432126
2,3, 1, 3, 0,24, 0.00,60.00,Tuesday
213,287117694.0426822
6085,287117694.04268193
2,4, 1, 4, 0, 1, 0.00,60.00,Wednesday
213,269958328.95921004
6085,269958328.9592099
2,4, 1, 4, 0, 2, 0.00,60.00,Wednesday
213,266268677.22592375
6085,266268677.22592363
2,4, 1, 4, 0, 3, 0.00,60.00,Wednesday
213,270810201.00291586
6085,270810201.00291574
2,4, 1, 4, 0, 4, 0.00,60.00,Wednesday
213,270079708.02725273
6085,270079708.0272526
2,4, 1, 4, 0, 5, 0.00,60.00,Wednesday
213,268902285.256667
6085,268902285.2566669
2,4, 1, 4, 0, 6, 0.00,60.00,Wednesday
213,286998270.96308994
6085,286998270.96308976
2,4, 1, 4, 0, 7, 0.00,60.00,Wednesday
213,308070196.5213561
6085,308070196.52135587
2,4, 1, 4, 0, 8, 0.00,60.00,Wednesday
213,305988391.86677164
6085,305988391.8667715
2,4, 1, 4, 0, 9, 0.00,60.00,Wednesday
213,305906785.5407406
6085,305906785.5407404
2,4, 1, 4, 0,10, 0.00,60.00,Wednesday
213,296308493.8193963
6085,296308493.81939614
2,4, 1, 4, 0,11, 0.00,60.00,Wednesday
213,279841178.4502824
6085,279841178.45028216
2,4, 1, 4, 0,12, 0.00,60.00,Wednesday
213,268664379.0281589
6085,268664379.02815866
2,4, 1, 4, 0,13, 0.00,60.00,Wednesday
213,257452665.94889173
6085,257452665.94889152
2,4, 1, 4, 0,14, 0.00,60.00,Wednesday
213,254125241.00046515
6085,254125241.00046495
2,4, 1, 4, 0,15, 0.00,60.00,Wednesday
213,259657165.71978253
6085,259657165.71978232
2,4, 1, 4, 0,16, 0.00,60.00,Wednesday
213,268017754.53054747
6085,268017754.53054732
2,4, 1, 4, 0,17, 0.00,60.00,Wednesday
213,297993003.0926011
6085,297993003.09260136
2,4, 1, 4, 0,18, 0.00,60.00,Wednesday
213,353819794.2710909
6085,353819794.2710914
2,4, 1, 4, 0,19, 0.00,60.00,Wednesday
213,369749111.0919916
6085,369749111.09199196
2,4, 1, 4, 0,20, 0.00,60.00,Wednesday
213,352128688.6436845
6085,352128688.6436849
2,4, 1, 4, 0,21, 0.00,60.00,Wednesday
213,353137096.445771
6085,353137096.44577146
2,4, 1, 4, 0,22, 0.00,60.00,Wednesday
213,334622703.59303623
6085,334622703.59303635
2,4, 1, 4, 0,23, 0.00,60.00,Wednesday
213,297425487.183001
6085,297425487.1830007
2,4, 1, 4, 0,24, 0.00,60.00,Wednesday
213,277930653.1305402
6085,277930653.13053995
2,5, 1, 5, 0, 1, 0.00,60.00,Thursday
213,261289019.52950597
6085,261289019.52950597
2,5, 1, 5, 0, 2, 0.00,60.00,Thursday
213,251842253.4078185
6085,251842253.40781844
2,5, 1, 5, 0, 3, 0.00,60.00,Thursday
213,253212992.6282045
6085,253212992.62820432
2,5, 1, 5, 0, 4, 0.00,60.00,Thursday
213,251394789.01141152
6085,251394789.01141137
2,5, 1, 5, 0, 5, 0.00,60.00,Thursday
213,249729989.18821198
6085,249729989.18821186
2,5, 1, 5, 0, 6, 0.00,60.00,Thursday
213,272422246.95028555
6085,272422246.9502854
2,5, 1, 5, 0, 7, 0.00,60.00,Thursday
213,300235409.6207448
6085,300235409.6207447
2,5, 1, 5, 0, 8, 0.00,60.00,Thursday
213,297138113.8368058
6085,297138113.8368056
2,5, 1, 5, 0, 9, 0.00,60.00,Thursday
213,285519724.99110436
6085,285519724.9911041
2,5, 1, 5, 0,10, 0.00,60.00,Thursday
213,260044829.3466154
6085,260044829.34661525
2,5, 1, 5, 0,11, 0.00,60.00,Thursday
213,235486991.254467
6085,235486991.2544669
2,5, 1, 5, 0,12, 0.00,60.00,Thursday
213,226390580.79829088
6085,226390580.79829067
2,5, 1, 5, 0,13, 0.00,60.00,Thursday
213,216293476.63687006
6085,216293476.6368699
2,5, 1, 5, 0,14, 0.00,60.00,Thursday
213,206616345.4151115
6085,206616345.4151114
2,5, 1, 5, 0,15, 0.00,60.00,Thursday
213,194465553.44080797
6085,194465553.44080776
2,5, 1, 5, 0,16, 0.00,60.00,Thursday
213,199655980.33534217
6085,199655980.33534196
2,5, 1, 5, 0,17, 0.00,60.00,Thursday
213,236818490.1425223
6085,236818490.14252213
2,5, 1, 5, 0,18, 0.00,60.00,Thursday
213,299628611.9869026
6085,299628611.9869031
2,5, 1, 5, 0,19, 0.00,60.00,Thursday
213,329445413.41922426
6085,329445413.41922474
2,5, 1, 5, 0,20, 0.00,60.00,Thursday
213,322502371.087831
6085,322502371.0878315
2,5, 1, 5, 0,21, 0.00,60.00,Thursday
213,320926631.4896461
6085,320926631.4896465
2,5, 1, 5, 0,22, 0.00,60.00,Thursday
213,303756543.8740813
6085,303756543.8740815
2,5, 1, 5, 0,23, 0.00,60.00,Thursday
213,271938032.52294797
6085,271938032.5229477
2,5, 1, 5, 0,24, 0.00,60.00,Thursday
213,245772134.67613053
6085,245772134.67613032
2,6, 1, 6, 0, 1, 0.00,60.00,Friday
213,228708839.97060895
6085,228708839.97060895
2,6, 1, 6, 0, 2, 0.00,60.00,Friday
213,226714782.241023
6085,226714782.24102294
2,6, 1, 6, 0, 3, 0.00,60.00,Friday
213,226540083.0872711
6085,226540083.08727098
2,6, 1, 6, 0, 4, 0.00,60.00,Friday
213,226853041.86262393
6085,226853041.8626238
2,6, 1, 6, 0, 5, 0.00,60.00,Friday
213,230102429.38415068
6085,230102429.3841506
2,6, 1, 6, 0, 6, 0.00,60.00,Friday
213,245638456.22937542
6085,245638456.22937524
2,6, 1, 6, 0, 7, 0.00,60.00,Friday
213,268949482.0905564
6085,268949482.0905562
2,6, 1, 6, 0, 8, 0.00,60.00,Friday
213,268147464.1980757
6085,268147464.19807556
2,6, 1, 6, 0, 9, 0.00,60.00,Friday
213,253145848.1400858
6085,253145848.14008558
2,6, 1, 6, 0,10, 0.00,60.00,Friday
213,219384067.0654122
6085,219384067.06541198
2,6, 1, 6, 0,11, 0.00,60.00,Friday
213,195489112.66512012
6085,195489112.66511995
2,6, 1, 6, 0,12, 0.00,60.00,Friday
213,193990986.33797884
6085,193990986.33797866
2,6, 1, 6, 0,13, 0.00,60.00,Friday
213,190591101.47839913
6085,190591101.47839892
2,6, 1, 6, 0,14, 0.00,60.00,Friday
213,186174453.138669
6085,186174453.13866884
2,6, 1, 6, 0,15, 0.00,60.00,Friday
213,183568169.29172987
6085,183568169.29172972
2,6, 1, 6, 0,16, 0.00,60.00,Friday
213,193780905.36575893
6085,193780905.36575872
2,6, 1, 6, 0,17, 0.00,60.00,Friday
213,226114636.99050117
6085,226114636.99050102
2,6, 1, 6, 0,18, 0.00,60.00,Friday
213,272470986.0807487
6085,272470986.0807492
2,6, 1, 6, 0,19, 0.00,60.00,Friday
213,302373631.26839775
6085,302373631.2683982
2,6, 1, 6, 0,20, 0.00,60.00,Friday
213,292695663.2527965
6085,292695663.2527969
2,6, 1, 6, 0,21, 0.00,60.00,Friday
213,289139944.106415
6085,289139944.1064154
2,6, 1, 6, 0,22, 0.00,60.00,Friday
213,275299549.4288382
6085,275299549.42883825
2,6, 1, 6, 0,23, 0.00,60.00,Friday
213,246477290.03159153
6085,246477290.03159136
2,6, 1, 6, 0,24, 0.00,60.00,Friday
213,226393092.78787884
6085,226393092.78787863
2,7, 1, 7, 0, 1, 0.00,60.00,Saturday
213,220141595.3220709
6085,220141595.3220708
2,7, 1, 7, 0, 2, 0.00,60.00,Saturday
213,227737924.91285416
6085,227737924.91285402
2,7, 1, 7, 0, 3, 0.00,60.00,Saturday
213,231344900.51109362
6085,231344900.51109356
2,7, 1, 7, 0, 4, 0.00,60.00,Saturday
213,233502147.19869423
6085,233502147.19869405
2,7, 1, 7, 0, 5, 0.00,60.00,Saturday
213,239838188.662159
6085,239838188.66215894
2,7, 1, 7, 0, 6, 0.00,60.00,Saturday
213,260389959.82744104
6085,260389959.82744086
2,7, 1, 7, 0, 7, 0.00,60.00,Saturday
213,285808097.5353662
6085,285808097.535366
2,7, 1, 7, 0, 8, 0.00,60.00,Saturday
213,283726727.8718342
6085,283726727.87183404
2,7, 1, 7, 0, 9, 0.00,60.00,Saturday
213,256421915.20597333
6085,256421915.20597312
2,7, 1, 7, 0,10, 0.00,60.00,Saturday
213,228608302.66604
6085,228608302.66603976
2,7, 1, 7, 0,11, 0.00,60.00,Saturday
213,206368236.3870283
6085,206368236.38702816
2,7, 1, 7, 0,12, 0.00,60.00,Saturday
213,196949773.3747221
6085,196949773.37472188
2,7, 1, 7, 0,13, 0.00,60.00,Saturday
213,191965102.90810332
6085,191965102.9081031
2,7, 1, 7, 0,14, 0.00,60.00,Saturday
213,186270347.06392762
6085,186270347.06392744
2,7, 1, 7, 0,15, 0.00,60.00,Saturday
213,181493377.59854624
6085,181493377.59854603
2,7, 1, 7, 0,16, 0.00,60.00,Saturday
213,186312071.93667638
6085,186312071.9366762
2,7, 1, 7, 0,17, 0.00,60.00,Saturday
213,224186933.0960764
6085,224186933.09607625
2,7, 1, 7, 0,18, 0.00,60.00,Saturday
213,282601470.6057428
6085,282601470.60574317
2,7, 1, 7, 0,19, 0.00,60.00,Saturday
213,309505457.22260255
6085,309505457.22260296
2,7, 1, 7, 0,20, 0.00,60.00,Saturday
213,299753470.81591666
6085,299753470.8159171
2,7, 1, 7, 0,21, 0.00,60.00,Saturday
213,297555170.2151152
6085,297555170.2151157
2,7, 1, 7, 0,22, 0.00,60.00,Saturday
213,280807306.55577296
6085,280807306.555773
2,7, 1, 7, 0,23, 0.00,60.00,Saturday
213,251232373.89171678
6085,251232373.89171666
2,7, 1, 7, 0,24, 0.00,60.00,Saturday
213,229584025.90192378
6085,229584025.9019236
2,8, 1, 8, 0, 1, 0.00,60.00,Sunday
213,218465827.797693
6085,218465827.797693
2,8, 1, 8, 0, 2, 0.00,60.00,Sunday
213,221808201.5198241
6085,221808201.51982397
2,8, 1, 8, 0, 3, 0.00,60.00,Sunday
213,226980003.43737918
6085,226980003.43737903
2,8, 1, 8, 0, 4, 0.00,60.00,Sunday
213,230716970.07623726
6085,230716970.0762371
2,8, 1, 8, 0, 5, 0.00,60.00,Sunday
213,236934595.53760535
6085,236934595.5376053
2,8, 1, 8, 0, 6, 0.00,60.00,Sunday
213,254887979.59129316
6085,254887979.59129292
2,8, 1, 8, 0, 7, 0.00,60.00,Sunday
213,281482460.2184851
6085,281482460.21848494
2,8, 1, 8, 0, 8, 0.00,60.00,Sunday
213,283577807.6727309
6085,283577807.67273074
2,8, 1, 8, 0, 9, 0.00,60.00,Sunday
213,252477374.7274203
6085,252477374.72742015
2,8, 1, 8, 0,10, 0.00,60.00,Sunday
213,221071746.01895213
6085,221071746.01895195
2,8, 1, 8, 0,11, 0.00,60.00,Sunday
213,198869620.67738137
6085,198869620.6773812
2,8, 1, 8, 0,12, 0.00,60.00,Sunday
213,192758693.84549782
6085,192758693.84549764
2,8, 1, 8, 0,13, 0.00,60.00,Sunday
213,190970185.67689738
6085,190970185.67689723
2,8, 1, 8, 0,14, 0.00,60.00,Sunday
213,193831121.24689484
6085,193831121.24689466
2,8, 1, 8, 0,15, 0.00,60.00,Sunday
213,200016841.9464123
6085,200016841.94641215
2,8, 1, 8, 0,16, 0.00,60.00,Sunday
213,200600653.09806597
6085,200600653.09806582
2,8, 1, 8, 0,17, 0.00,60.00,Sunday
213,231025948.2186817
6085,231025948.21868145
2,8, 1, 8, 0,18, 0.00,60.00,Sunday
213,273771328.2175425
6085,273771328.217543
2,8, 1, 8, 0,19, 0.00,60.00,Sunday
213,299355828.88631624
6085,299355828.8863167
2,8, 1, 8, 0,20, 0.00,60.00,Sunday
213,289524016.0973255
6085,289524016.0973259
2,8, 1, 8, 0,21, 0.00,60.00,Sunday
213,287761243.27832943
6085,287761243.2783299
2,8, 1, 8, 0,22, 0.00,60.00,Sunday
213,272705334.6658124
6085,272705334.6658125
2,8, 1, 8, 0,23, 0.00,60.00,Sunday
213,242454889.59416035
6085,242454889.5941601
2,8, 1, 8, 0,24, 0.00,60.00,Sunday
213,217629994.29604214
6085,217629994.29604194
2,9, 1, 9, 0, 1, 0.00,60.00,Monday
213,202573779.67526227
6085,202573779.67526224
2,9, 1, 9, 0, 2, 0.00,60.00,Monday
213,209240270.1486913
6085,209240270.14869118
2,9, 1, 9, 0, 3, 0.00,60.00,Monday
213,213986827.1267497
6085,213986827.1267496
2,9, 1, 9, 0, 4, 0.00,60.00,Monday
213,215537715.69466412
6085,215537715.69466403
2,9, 1, 9, 0, 5, 0.00,60.00,Monday
213,228619949.5348636
6085,228619949.53486347
2,9, 1, 9, 0, 6, 0.00,60.00,Monday
213,251303640.8450665
6085,251303640.84506634
2,9, 1, 9, 0, 7, 0.00,60.00,Monday
213,281768079.2387425
6085,281768079.2387423
2,9, 1, 9, 0, 8, 0.00,60.00,Monday
213,284781384.78225666
6085,284781384.7822565
2,9, 1, 9, 0, 9, 0.00,60.00,Monday
213,260016241.19286597
6085,260016241.19286576
2,9, 1, 9, 0,10, 0.00,60.00,Monday
213,225665563.6307861
6085,225665563.63078582
2,9, 1, 9, 0,11, 0.00,60.00,Monday
213,201482188.42366597
6085,201482188.42366582
2,9, 1, 9, 0,12, 0.00,60.00,Monday
213,192388610.19683492
6085,192388610.19683477
2,9, 1, 9, 0,13, 0.00,60.00,Monday
213,203771779.18516457
6085,203771779.18516442
2,9, 1, 9, 0,14, 0.00,60.00,Monday
213,218007633.44423923
6085,218007633.44423908
2,9, 1, 9, 0,15, 0.00,60.00,Monday
213,225996538.04382226
6085,225996538.0438221
2,9, 1, 9, 0,16, 0.00,60.00,Monday
213,233987234.83479115
6085,233987234.834791
2,9, 1, 9, 0,17, 0.00,60.00,Monday
213,254054712.01840913
6085,254054712.01840925
2,9, 1, 9, 0,18, 0.00,60.00,Monday
213,274486028.48753744
6085,274486028.48753786
2,9, 1, 9, 0,19, 0.00,60.00,Monday
213,293557370.6382677
6085,293557370.6382681
2,9, 1, 9, 0,20, 0.00,60.00,Monday
213,284996923.98864377
6085,284996923.98864424
2,9, 1, 9, 0,21, 0.00,60.00,Monday
213,284059340.6417246
6085,284059340.641725
2,9, 1, 9, 0,22, 0.00,60.00,Monday
213,268164341.85991284
6085,268164341.85991296
2,9, 1, 9, 0,23, 0.00,60.00,Monday
213,236536424.27012768
6085,236536424.2701275
2,9, 1, 9, 0,24, 0.00,60.00,Monday
213,218954579.2796184
6085,218954579.27961823
2,10, 1,10, 0, 1, 0.00,60.00,Tuesday
213,206437268.5078461
6085,206437268.50784606
2,10, 1,10, 0, 2, 0.00,60.00,Tuesday
213,206112907.376749
6085,206112907.3767489
2,10, 1,10, 0, 3, 0.00,60.00,Tuesday
213,207895422.94388887
6085,207895422.94388875
2,10, 1,10, 0, 4, 0.00,60.00,Tuesday
213,210951340.4110672
6085,210951340.41106704
2,10, 1,10, 0, 5, 0.00,60.00,Tuesday
213,219941771.33523458
6085,219941771.33523452
2,10, 1,10, 0, 6, 0.00,60.00,Tuesday
213,242707668.444322
6085,242707668.4443218
2,10, 1,10, 0, 7, 0.00,60.00,Tuesday
213,273079652.70621115
6085,273079652.706211
2,10, 1,10, 0, 8, 0.00,60.00,Tuesday
213,276896829.18986577
6085,276896829.1898655
2,10, 1,10, 0, 9, 0.00,60.00,Tuesday
213,257388519.83127865
6085,257388519.8312785
2,10, 1,10, 0,10, 0.00,60.00,Tuesday
213,227504015.25378397
6085,227504015.25378376
2,10, 1,10, 0,11, 0.00,60.00,Tuesday
213,197299413.54727185
6085,197299413.54727173
2,10, 1,10, 0,12, 0.00,60.00,Tuesday
213,191357561.85490447
6085,191357561.8549043
2,10, 1,10, 0,13, 0.00,60.00,Tuesday
213,207819724.3210178
6085,207819724.3210176
2,10, 1,10, 0,14, 0.00,60.00,Tuesday
213,219337149.21234465
6085,219337149.2123445
2,10, 1,10, 0,15, 0.00,60.00,Tuesday
213,182653881.08672214
6085,182653881.08672193
2,10, 1,10, 0,16, 0.00,60.00,Tuesday
213,157952780.16742152
6085,157952780.16742134
2,10, 1,10, 0,17, 0.00,60.00,Tuesday
213,196337339.04843011
6085,196337339.04842994
2,10, 1,10, 0,18, 0.00,60.00,Tuesday
213,251943685.58694965
6085,251943685.58695006
2,10, 1,10, 0,19, 0.00,60.00,Tuesday
213,276837777.09457207
6085,276837777.09457254
2,10, 1,10, 0,20, 0.00,60.00,Tuesday
213,272429726.4447407
6085,272429726.4447412
2,10, 1,10, 0,21, 0.00,60.00,Tuesday
213,274871580.6663758
6085,274871580.66637623
2,10, 1,10, 0,22, 0.00,60.00,Tuesday
213,258260344.6917398
6085,258260344.69173998
2,10, 1,10, 0,23, 0.00,60.00,Tuesday
213,224332547.6274128
6085,224332547.62741265
2,10, 1,10, 0,24, 0.00,60.00,Tuesday
213,196426082.7242181
6085,196426082.7242179
2,11, 1,11, 0, 1, 0.00,60.00,Wednesday
213,177755934.33515078
6085,177755934.3351507
2,11, 1,11, 0, 2, 0.00,60.00,Wednesday
213,174486638.72752953
6085,174486638.72752938
2,11, 1,11, 0, 3, 0.00,60.00,Wednesday
213,176340865.57589218
6085,176340865.57589203
2,11, 1,11, 0, 4, 0.00,60.00,Wednesday
213,176214980.83343405
6085,176214980.83343387
2,11, 1,11, 0, 5, 0.00,60.00,Wednesday
213,176914054.65257514
6085,176914054.65257496
2,11, 1,11, 0, 6, 0.00,60.00,Wednesday
213,198528799.8467549
6085,198528799.84675476
2,11, 1,11, 0, 7, 0.00,60.00,Wednesday
213,224762032.20852387
6085,224762032.20852366
2,11, 1,11, 0, 8, 0.00,60.00,Wednesday
213,224048284.75489268
6085,224048284.75489247
2,11, 1,11, 0, 9, 0.00,60.00,Wednesday
213,221364550.12376916
6085,221364550.12376902
2,11, 1,11, 0,10, 0.00,60.00,Wednesday
213,212280273.84287465
6085,212280273.84287447
2,11, 1,11, 0,11, 0.00,60.00,Wednesday
213,196724638.83428466
6085,196724638.83428454
2,11, 1,11, 0,12, 0.00,60.00,Wednesday
213,205447852.46603167
6085,205447852.4660314
2,11, 1,11, 0,13, 0.00,60.00,Wednesday
213,202487971.9176749
6085,202487971.91767472
2,11, 1,11, 0,14, 0.00,60.00,Wednesday
213,194393565.5420846
6085,194393565.54208443
2,11, 1,11, 0,15, 0.00,60.00,Wednesday
213,203292606.14435777
6085,203292606.14435756
2,11, 1,11, 0,16, 0.00,60.00,Wednesday
213,218310671.5878804
6085,218310671.5878802
2,11, 1,11, 0,17, 0.00,60.00,Wednesday
213,254520153.22036657
6085,254520153.22036672
2,11, 1,11, 0,18, 0.00,60.00,Wednesday
213,308785983.5099311
6085,308785983.50993156
2,11, 1,11, 0,19, 0.00,60.00,Wednesday
213,329914342.61167264
6085,329914342.6116731
2,11, 1,11, 0,20, 0.00,60.00,Wednesday
213,317758136.08579284
6085,317758136.0857933
2,11, 1,11, 0,21, 0.00,60.00,Wednesday
213,312742594.11904675
6085,312742594.1190472
2,11, 1,11, 0,22, 0.00,60.00,Wednesday
213,295755856.7540896
6085,295755856.7540898
2,11, 1,11, 0,23, 0.00,60.00,Wednesday
213,267909092.27219236
6085,267909092.27219224
2,11, 1,11, 0,24, 0.00,60.00,Wednesday
213,248645023.7976362
6085,248645023.797636
2,12, 1,12, 0, 1, 0.00,60.00,Thursday
213,235233814.25794572
6085,235233814.25794566
2,12, 1,12, 0, 2, 0.00,60.00,Thursday
213,233492107.73125744
6085,233492107.73125732
2,12, 1,12, 0, 3, 0.00,60.00,Thursday
213,233178539.34377003
6085,233178539.34376994
2,12, 1,12, 0, 4, 0.00,60.00,Thursday
213,232694694.02126324
6085,232694694.02126312
2,12, 1,12, 0, 5, 0.00,60.00,Thursday
213,236150231.70910966
6085,236150231.7091095
2,12, 1,12, 0, 6, 0.00,60.00,Thursday
213,259320271.62501547
6085,259320271.62501526
2,12, 1,12, 0, 7, 0.00,60.00,Thursday
213,284380094.0894382
6085,284380094.089438
2,12, 1,12, 0, 8, 0.00,60.00,Thursday
213,280963119.4422964
6085,280963119.44229615
2,12, 1,12, 0, 9, 0.00,60.00,Thursday
213,283803677.2681899
6085,283803677.26818967
2,12, 1,12, 0,10, 0.00,60.00,Thursday
213,270411774.5484128
6085,270411774.5484126
2,12, 1,12, 0,11, 0.00,60.00,Thursday
213,243705640.52361855
6085,243705640.5236184
2,12, 1,12, 0,12, 0.00,60.00,Thursday
213,247120469.44583598
6085,247120469.44583583
2,12, 1,12, 0,13, 0.00,60.00,Thursday
213,240310072.50311553
6085,240310072.50311536
2,12, 1,12, 0,14, 0.00,60.00,Thursday
213,228313642.49253923
6085,228313642.49253905
2,12, 1,12, 0,15, 0.00,60.00,Thursday
213,237716730.30892736
6085,237716730.30892718
2,12, 1,12, 0,16, 0.00,60.00,Thursday
213,250167435.2228034
6085,250167435.22280326
2,12, 1,12, 0,17, 0.00,60.00,Thursday
213,285390473.82797694
6085,285390473.8279771
2,12, 1,12, 0,18, 0.00,60.00,Thursday
213,341638537.5118296
6085,341638537.51183003
2,12, 1,12, 0,19, 0.00,60.00,Thursday
213,355321246.7823647
6085,355321246.7823652
2,12, 1,12, 0,20, 0.00,60.00,Thursday
213,337996726.40669334
6085,337996726.40669376
2,12, 1,12, 0,21, 0.00,60.00,Thursday
213,338215896.7713647
6085,338215896.7713651
2,12, 1,12, 0,22, 0.00,60.00,Thursday
213,319543004.13572294
6085,319543004.135723
2,12, 1,12, 0,23, 0.00,60.00,Thursday
213,283289492.9363918
6085,283289492.9363916
2,12, 1,12, 0,24, 0.00,60.00,Thursday
213,264332823.27490273
6085,264332823.27490252
2,13, 1,13, 0, 1, 0.00,60.00,Friday
213,252135759.96615535
6085,252135759.96615532
2,13, 1,13, 0, 2, 0.00,60.00,Friday
213,247217855.82150048
6085,247217855.8215003
2,13, 1,13, 0, 3, 0.00,60.00,Friday
213,252550064.15054035
6085,252550064.15054017
2,13, 1,13, 0, 4, 0.00,60.00,Friday
213,251929604.34233156
6085,251929604.34233144
2,13, 1,13, 0, 5, 0.00,60.00,Friday
213,249379565.59286934
6085,249379565.59286928
2,13, 1,13, 0, 6, 0.00,60.00,Friday
213,271100344.41597193
6085,271100344.41597176
2,13, 1,13, 0, 7, 0.00,60.00,Friday
213,293844000.6103876
6085,293844000.61038744
2,13, 1,13, 0, 8, 0.00,60.00,Friday
213,289866580.6009686
6085,289866580.6009684
2,13, 1,13, 0, 9, 0.00,60.00,Friday
213,288575994.9747343
6085,288575994.97473407
2,13, 1,13, 0,10, 0.00,60.00,Friday
213,274509181.8653751
6085,274509181.86537486
2,13, 1,13, 0,11, 0.00,60.00,Friday
213,257490701.25805157
6085,257490701.25805146
2,13, 1,13, 0,12, 0.00,60.00,Friday
213,255146062.87941825
6085,255146062.87941796
2,13, 1,13, 0,13, 0.00,60.00,Friday
213,249092513.82093167
6085,249092513.82093152
2,13, 1,13, 0,14, 0.00,60.00,Friday
213,247926435.18121946
6085,247926435.18121928
2,13, 1,13, 0,15, 0.00,60.00,Friday
213,248371577.97894916
6085,248371577.97894898
2,13, 1,13, 0,16, 0.00,60.00,Friday
213,257793147.58270484
6085,257793147.58270463
2,13, 1,13, 0,17, 0.00,60.00,Friday
213,292514093.5123695
6085,292514093.5123697
2,13, 1,13, 0,18, 0.00,60.00,Friday
213,343081245.87945914
6085,343081245.87945956
2,13, 1,13, 0,19, 0.00,60.00,Friday
213,359791185.5604788
6085,359791185.5604792
2,13, 1,13, 0,20, 0.00,60.00,Friday
213,347082937.273784
6085,347082937.27378434
2,13, 1,13, 0,21, 0.00,60.00,Friday
213,348302325.7978504
6085,348302325.7978508
2,13, 1,13, 0,22, 0.00,60.00,Friday
213,330156596.64795464
6085,330156596.64795494
2,13, 1,13, 0,23, 0.00,60.00,Friday
213,293954379.1964329
6085,293954379.1964327
2,13, 1,13, 0,24, 0.00,60.00,Friday
213,268622377.0100084
6085,268622377.01000816
2,14, 1,14, 0, 1, 0.00,60.00,Saturday
213,255980154.63848197
6085,255980154.63848197
2,14, 1,14, 0, 2, 0.00,60.00,Saturday
213,254607395.97581184
6085,254607395.97581178
2,14, 1,14, 0, 3, 0.00,60.00,Saturday
213,258554319.38907683
6085,258554319.38907674
2,14, 1,14, 0, 4, 0.00,60.00,Saturday
213,257821015.8104179
6085,257821015.81041774
2,14, 1,14, 0, 5, 0.00,60.00,Saturday
213,256462804.80857417
6085,256462804.80857414
2,14, 1,14, 0, 6, 0.00,60.00,Saturday
213,277084006.6706483
6085,277084006.6706481
2,14, 1,14, 0, 7, 0.00,60.00,Saturday
213,298857697.7930627
6085,298857697.79306245
2,14, 1,14, 0, 8, 0.00,60.00,Saturday
213,292679064.0097737
6085,292679064.0097735
2,14, 1,14, 0, 9, 0.00,60.00,Saturday
213,284915540.32615083
6085,284915540.32615066
2,14, 1,14, 0,10, 0.00,60.00,Saturday
213,271601508.8774732
6085,271601508.877473
2,14, 1,14, 0,11, 0.00,60.00,Saturday
213,249634590.78229022
6085,249634590.78228998
2,14, 1,14, 0,12, 0.00,60.00,Saturday
213,260480029.18695405
6085,260480029.1869539
2,14, 1,14, 0,13, 0.00,60.00,Saturday
213,256980696.53749654
6085,256980696.53749636
2,14, 1,14, 0,14, 0.00,60.00,Saturday
213,244463037.75648177
6085,244463037.75648156
2,14, 1,14, 0,15, 0.00,60.00,Saturday
213,255049300.1838745
6085,255049300.18387428
2,14, 1,14, 0,16, 0.00,60.00,Saturday
213,268000619.45055825
6085,268000619.45055807
2,14, 1,14, 0,17, 0.00,60.00,Saturday
213,292333570.7083395
6085,292333570.7083397
2,14, 1,14, 0,18, 0.00,60.00,Saturday
213,350740543.6601218
6085,350740543.6601222
2,14, 1,14, 0,19, 0.00,60.00,Saturday
213,373521768.9564794
6085,373521768.9564797
2,14, 1,14, 0,20, 0.00,60.00,Saturday
213,356842042.48328257
6085,356842042.4832831
2,14, 1,14, 0,21, 0.00,60.00,Saturday
213,354835855.7917057
6085,354835855.7917061
2,14, 1,14, 0,22, 0.00,60.00,Saturday
213,333152560.90932256
6085,333152560.9093228
2,14, 1,14, 0,23, 0.00,60.00,Saturday
213,296277248.3874601
6085,296277248.38745993
2,14, 1,14, 0,24, 0.00,60.00,Saturday
213,271918578.7135892
6085,271918578.713589
2,15, 1,15, 0, 1, 0.00,60.00,Sunday
213,255228405.3626741
6085,255228405.36267406
2,15, 1,15, 0, 2, 0.00,60.00,Sunday
213,251082008.6925678
6085,251082008.69256768
2,15, 1,15, 0, 3, 0.00,60.00,Sunday
213,255375463.59858632
6085,255375463.59858626
2,15, 1,15, 0, 4, 0.00,60.00,Sunday
213,254659175.5423942
6085,254659175.5423941
2,15, 1,15, 0, 5, 0.00,60.00,Sunday
213,253241290.1981992
6085,253241290.19819915
2,15, 1,15, 0, 6, 0.00,60.00,Sunday
213,266887074.5008365
6085,266887074.50083637
2,15, 1,15, 0, 7, 0.00,60.00,Sunday
213,290967181.57495093
6085,290967181.5749508
2,15, 1,15, 0, 8, 0.00,60.00,Sunday
213,293257958.2415736
6085,293257958.2415734
2,15, 1,15, 0, 9, 0.00,60.00,Sunday
213,292643932.4231195
6085,292643932.42311925
2,15, 1,15, 0,10, 0.00,60.00,Sunday
213,286122024.99403703
6085,286122024.9940368
2,15, 1,15, 0,11, 0.00,60.00,Sunday
213,267743209.51151726
6085,267743209.51151705
2,15, 1,15, 0,12, 0.00,60.00,Sunday
213,269437601.3125683
6085,269437601.31256807
2,15, 1,15, 0,13, 0.00,60.00,Sunday
213,267409585.1492746
6085,267409585.1492743
2,15, 1,15, 0,14, 0.00,60.00,Sunday
213,264104852.60143206
6085,264104852.60143188
2,15, 1,15, 0,15, 0.00,60.00,Sunday
213,263936606.5767255
6085,263936606.5767253
2,15, 1,15, 0,16, 0.00,60.00,Sunday
213,277167992.69333804
6085,277167992.69333786
2,15, 1,15, 0,17, 0.00,60.00,Sunday
213,307744827.4408236
6085,307744827.44082373
2,15, 1,15, 0,18, 0.00,60.00,Sunday
213,352533520.1558641
6085,352533520.15586454