Program Version,EnergyPlus, Version 26.1.0-6f2e40d102, YMD=2026.04.14 19:45
1,5,Environment Title[],Latitude[deg],Longitude[deg],Time Zone[],Elevation[m]
2,8,Day of Simulation[],Month[],Day of Month[],DST Indicator[1=yes 0=no],Hour[],StartMinute[],EndMinute[],DayType
3,5,Cumulative Day of Simulation[],Month[],Day of Month[],DST Indicator[1=yes 0=no],DayType  ! When Daily Meters Requested
4,2,Cumulative Days of Simulation[],Month[]  ! When Monthly Meters Requested
5,1,Cumulative Days of Simulation[] ! When Run Period Meters Requested
6,1,Calendar Year of Simulation[] ! When Annual Meters Requested
213,1,Electricity:Facility [J] !Hourly
5925,1,ElectricityNet:Facility [J] !Hourly
End of Data Dictionary
1,RUNPERIOD 1,  28.11, 112.79,   8.00, 120.00
2,1, 1, 1, 0, 1, 0.00,60.00,Sunday
213,98140882.85126834
5925,98140882.85126834
2,1, 1, 1, 0, 2, 0.00,60.00,Sunday
213,101114629.92149337
5925,101114629.92149338
2,1, 1, 1, 0, 3, 0.00,60.00,Sunday
213,106050512.69566315
5925,106050512.69566315
2,1, 1, 1, 0, 4, 0.00,60.00,Sunday
213,99412260.7087219
5925,99412260.7087219
2,1, 1, 1, 0, 5, 0.00,60.00,Sunday
213,109378778.56978928
5925,109378778.56978926
2,1, 1, 1, 0, 6, 0.00,60.00,Sunday
213,136055541.126706
5925,136055541.126706
2,1, 1, 1, 0, 7, 0.00,60.00,Sunday
213,201260853.94353905
5925,201260853.94353896
2,1, 1, 1, 0, 8, 0.00,60.00,Sunday
213,205029548.85947895
5925,205029548.85947916
2,1, 1, 1, 0, 9, 0.00,60.00,Sunday
213,185062519.83079743
5925,185062519.83079746
2,1, 1, 1, 0,10, 0.00,60.00,Sunday
213,165507548.77857286
5925,165507548.7785729
2,1, 1, 1, 0,11, 0.00,60.00,Sunday
213,166356758.75641766
5925,166356758.75641766
2,1, 1, 1, 0,12, 0.00,60.00,Sunday
213,149061421.15066022
5925,149061421.15066022
2,1, 1, 1, 0,13, 0.00,60.00,Sunday
213,138037507.44925144
5925,138037507.4492514
2,1, 1, 1, 0,14, 0.00,60.00,Sunday
213,142649708.59440994
5925,142649708.59440994
2,1, 1, 1, 0,15, 0.00,60.00,Sunday
213,123029670.56124488
5925,123029670.56124485
2,1, 1, 1, 0,16, 0.00,60.00,Sunday
213,149103536.90804064
5925,149103536.90804067
2,1, 1, 1, 0,17, 0.00,60.00,Sunday
213,167992869.37434906
5925,167992869.37434927
2,1, 1, 1, 0,18, 0.00,60.00,Sunday
213,208597385.53124547
5925,208597385.53124586
2,1, 1, 1, 0,19, 0.00,60.00,Sunday
213,246547035.08378023
5925,246547035.0837806
2,1, 1, 1, 0,20, 0.00,60.00,Sunday
213,230112291.73984972
5925,230112291.7398501
2,1, 1, 1, 0,21, 0.00,60.00,Sunday
213,233215207.87678754
5925,233215207.87678787
2,1, 1, 1, 0,22, 0.00,60.00,Sunday
213,204041050.3405192
5925,204041050.34051943
2,1, 1, 1, 0,23, 0.00,60.00,Sunday
213,174945836.33489177
5925,174945836.33489177
2,1, 1, 1, 0,24, 0.00,60.00,Sunday
213,137769788.26293886
5925,137769788.26293883
2,2, 1, 2, 0, 1, 0.00,60.00,Holiday
213,105985895.25183792
5925,105985895.25183791
2,2, 1, 2, 0, 2, 0.00,60.00,Holiday
213,108399169.24482352
5925,108399169.24482353
2,2, 1, 2, 0, 3, 0.00,60.00,Holiday
213,100000069.97177798
5925,100000069.97177798
2,2, 1, 2, 0, 4, 0.00,60.00,Holiday
213,94302062.36583616
5925,94302062.36583617
2,2, 1, 2, 0, 5, 0.00,60.00,Holiday
213,110362588.08727546
5925,110362588.08727546
2,2, 1, 2, 0, 6, 0.00,60.00,Holiday
213,137060548.21983993
5925,137060548.2198399
2,2, 1, 2, 0, 7, 0.00,60.00,Holiday
213,203008496.89867637
5925,203008496.89867634
2,2, 1, 2, 0, 8, 0.00,60.00,Holiday
213,207077347.87684605
5925,207077347.87684622
2,2, 1, 2, 0, 9, 0.00,60.00,Holiday
213,186648141.84290084
5925,186648141.84290084
2,2, 1, 2, 0,10, 0.00,60.00,Holiday
213,166978063.97223246
5925,166978063.9722325
2,2, 1, 2, 0,11, 0.00,60.00,Holiday
213,168086545.17628384
5925,168086545.1762838
2,2, 1, 2, 0,12, 0.00,60.00,Holiday
213,154556261.18100828
5925,154556261.18100828
2,2, 1, 2, 0,13, 0.00,60.00,Holiday
213,146292961.07887554
5925,146292961.0788755
2,2, 1, 2, 0,14, 0.00,60.00,Holiday
213,130861524.25579266
5925,130861524.25579266
2,2, 1, 2, 0,15, 0.00,60.00,Holiday
213,135672883.324502
5925,135672883.324502
2,2, 1, 2, 0,16, 0.00,60.00,Holiday
213,134284584.03725162
5925,134284584.0372516
2,2, 1, 2, 0,17, 0.00,60.00,Holiday
213,175454156.69399035
5925,175454156.69399053
2,2, 1, 2, 0,18, 0.00,60.00,Holiday
213,205678619.90876213
5925,205678619.90876245
2,2, 1, 2, 0,19, 0.00,60.00,Holiday
213,247552437.61929476
5925,247552437.61929515
2,2, 1, 2, 0,20, 0.00,60.00,Holiday
213,237719778.39827883
5925,237719778.39827913
2,2, 1, 2, 0,21, 0.00,60.00,Holiday
213,224185288.60134318
5925,224185288.60134354
2,2, 1, 2, 0,22, 0.00,60.00,Holiday
213,201675924.1017034
5925,201675924.10170364
2,2, 1, 2, 0,23, 0.00,60.00,Holiday
213,175900077.1175491
5925,175900077.1175491
2,2, 1, 2, 0,24, 0.00,60.00,Holiday
213,138796621.20790964
5925,138796621.2079096
2,3, 1, 3, 0, 1, 0.00,60.00,Tuesday
213,120138787.54031518
5925,120138787.54031518
2,3, 1, 3, 0, 2, 0.00,60.00,Tuesday
213,103443157.34612456
5925,103443157.34612456
2,3, 1, 3, 0, 3, 0.00,60.00,Tuesday
213,95166532.88139929
5925,95166532.88139929
2,3, 1, 3, 0, 4, 0.00,60.00,Tuesday
213,107629266.19048913
5925,107629266.19048911
2,3, 1, 3, 0, 5, 0.00,60.00,Tuesday
213,105473083.38110222
5925,105473083.38110223
2,3, 1, 3, 0, 6, 0.00,60.00,Tuesday
213,139644695.1492203
5925,139644695.1492203
2,3, 1, 3, 0, 7, 0.00,60.00,Tuesday
213,205040381.88123462
5925,205040381.88123462
2,3, 1, 3, 0, 8, 0.00,60.00,Tuesday
213,200787686.65474892
5925,200787686.65474913
2,3, 1, 3, 0, 9, 0.00,60.00,Tuesday
213,199585893.64352512
5925,199585893.64352527
2,3, 1, 3, 0,10, 0.00,60.00,Tuesday
213,177973948.16296834
5925,177973948.1629683
2,3, 1, 3, 0,11, 0.00,60.00,Tuesday
213,167286113.61808178
5925,167286113.61808175
2,3, 1, 3, 0,12, 0.00,60.00,Tuesday
213,152448833.23512688
5925,152448833.2351269
2,3, 1, 3, 0,13, 0.00,60.00,Tuesday
213,150808576.40877944
5925,150808576.40877944
2,3, 1, 3, 0,14, 0.00,60.00,Tuesday
213,135874883.9014042
5925,135874883.9014042
2,3, 1, 3, 0,15, 0.00,60.00,Tuesday
213,148550186.78795838
5925,148550186.78795838
2,3, 1, 3, 0,16, 0.00,60.00,Tuesday
213,153634943.6483442
5925,153634943.6483442
2,3, 1, 3, 0,17, 0.00,60.00,Tuesday
213,160799486.04946154
5925,160799486.0494617
2,3, 1, 3, 0,18, 0.00,60.00,Tuesday
213,221473701.9044162
5925,221473701.90441656
2,3, 1, 3, 0,19, 0.00,60.00,Tuesday
213,235158053.0286669
5925,235158053.02866724
2,3, 1, 3, 0,20, 0.00,60.00,Tuesday
213,246021197.20285857
5925,246021197.2028589
2,3, 1, 3, 0,21, 0.00,60.00,Tuesday
213,221653327.5150137
5925,221653327.51501405
2,3, 1, 3, 0,22, 0.00,60.00,Tuesday
213,205558800.31478775
5925,205558800.314788
2,3, 1, 3, 0,23, 0.00,60.00,Tuesday
213,176311844.0917579
5925,176311844.09175795
2,3, 1, 3, 0,24, 0.00,60.00,Tuesday
213,137743565.81634733
5925,137743565.81634733
2,4, 1, 4, 0, 1, 0.00,60.00,Wednesday
213,112175730.70599477
5925,112175730.70599477
2,4, 1, 4, 0, 2, 0.00,60.00,Wednesday
213,103578729.5076832
5925,103578729.5076832
2,4, 1, 4, 0, 3, 0.00,60.00,Wednesday
213,109786524.07762632
5925,109786524.0776263
2,4, 1, 4, 0, 4, 0.00,60.00,Wednesday
213,102968294.3893696
5925,102968294.3893696
2,4, 1, 4, 0, 5, 0.00,60.00,Wednesday
213,98867026.64998838
5925,98867026.64998838
2,4, 1, 4, 0, 6, 0.00,60.00,Wednesday
213,139048632.0672912
5925,139048632.0672912
2,4, 1, 4, 0, 7, 0.00,60.00,Wednesday
213,204330356.7364816
5925,204330356.73648158
2,4, 1, 4, 0, 8, 0.00,60.00,Wednesday
213,208616249.8540832
5925,208616249.85408336
2,4, 1, 4, 0, 9, 0.00,60.00,Wednesday
213,192447171.98067713
5925,192447171.98067725
2,4, 1, 4, 0,10, 0.00,60.00,Wednesday
213,185921006.026851
5925,185921006.026851
2,4, 1, 4, 0,11, 0.00,60.00,Wednesday
213,159038565.02072534
5925,159038565.02072534
2,4, 1, 4, 0,12, 0.00,60.00,Wednesday
213,157233000.29950243
5925,157233000.29950243
2,4, 1, 4, 0,13, 0.00,60.00,Wednesday
213,147275252.67409796
5925,147275252.67409796
2,4, 1, 4, 0,14, 0.00,60.00,Wednesday
213,145534627.57153487
5925,145534627.57153487
2,4, 1, 4, 0,15, 0.00,60.00,Wednesday
213,126012458.6567367
5925,126012458.65673669
2,4, 1, 4, 0,16, 0.00,60.00,Wednesday
213,151501775.8597719
5925,151501775.85977188
2,4, 1, 4, 0,17, 0.00,60.00,Wednesday
213,178248978.2650994
5925,178248978.26509959
2,4, 1, 4, 0,18, 0.00,60.00,Wednesday
213,206104419.25766498
5925,206104419.25766528
2,4, 1, 4, 0,19, 0.00,60.00,Wednesday
213,246905575.16183406
5925,246905575.16183433
2,4, 1, 4, 0,20, 0.00,60.00,Wednesday
213,221946056.94712192
5925,221946056.94712222
2,4, 1, 4, 0,21, 0.00,60.00,Wednesday
213,239734254.7607467
5925,239734254.76074702
2,4, 1, 4, 0,22, 0.00,60.00,Wednesday
213,198739082.88102686
5925,198739082.8810271
2,4, 1, 4, 0,23, 0.00,60.00,Wednesday
213,160971334.45660496
5925,160971334.45660493
2,4, 1, 4, 0,24, 0.00,60.00,Wednesday
213,150343484.80792776
5925,150343484.80792776
2,5, 1, 5, 0, 1, 0.00,60.00,Thursday
213,105411021.77089547
5925,105411021.77089547
2,5, 1, 5, 0, 2, 0.00,60.00,Thursday
213,114816689.25704223
5925,114816689.25704223
2,5, 1, 5, 0, 3, 0.00,60.00,Thursday
213,94320585.72486532
5925,94320585.72486533
2,5, 1, 5, 0, 4, 0.00,60.00,Thursday
213,93450049.38224885
5925,93450049.38224886
2,5, 1, 5, 0, 5, 0.00,60.00,Thursday
213,116370532.809548
5925,116370532.809548
2,5, 1, 5, 0, 6, 0.00,60.00,Thursday
213,137544944.5694753
5925,137544944.5694753
2,5, 1, 5, 0, 7, 0.00,60.00,Thursday
213,203777163.75010085
5925,203777163.75010085
2,5, 1, 5, 0, 8, 0.00,60.00,Thursday
213,199899133.91554394
5925,199899133.91554418
2,5, 1, 5, 0, 9, 0.00,60.00,Thursday
213,197711125.4046636
5925,197711125.40466374
2,5, 1, 5, 0,10, 0.00,60.00,Thursday
213,160684031.37579495
5925,160684031.3757949
2,5, 1, 5, 0,11, 0.00,60.00,Thursday
213,175269771.01560858
5925,175269771.01560858
2,5, 1, 5, 0,12, 0.00,60.00,Thursday
213,145671964.92755482
5925,145671964.9275548
2,5, 1, 5, 0,13, 0.00,60.00,Thursday
213,137394199.43730992
5925,137394199.43730992
2,5, 1, 5, 0,14, 0.00,60.00,Thursday
213,133669192.01819597
5925,133669192.01819597
2,5, 1, 5, 0,15, 0.00,60.00,Thursday
213,138975062.24700466
5925,138975062.24700463
2,5, 1, 5, 0,16, 0.00,60.00,Thursday
213,130097344.19162212
5925,130097344.19162208
2,5, 1, 5, 0,17, 0.00,60.00,Thursday
213,164568895.57362878
5925,164568895.57362893
2,5, 1, 5, 0,18, 0.00,60.00,Thursday
213,200408588.46273354
5925,200408588.4627339
2,5, 1, 5, 0,19, 0.00,60.00,Thursday
213,242499625.60373905
5925,242499625.60373944
2,5, 1, 5, 0,20, 0.00,60.00,Thursday
213,240078754.03993902
5925,240078754.03993934
2,5, 1, 5, 0,21, 0.00,60.00,Thursday
213,216350487.03640747
5925,216350487.03640777
2,5, 1, 5, 0,22, 0.00,60.00,Thursday
213,200736622.93083763
5925,200736622.93083787
2,5, 1, 5, 0,23, 0.00,60.00,Thursday
213,171542284.270943
5925,171542284.27094305
2,5, 1, 5, 0,24, 0.00,60.00,Thursday
213,132838789.9127185
5925,132838789.91271853
2,6, 1, 6, 0, 1, 0.00,60.00,Friday
213,108024521.94253847
5925,108024521.94253847
2,6, 1, 6, 0, 2, 0.00,60.00,Friday
213,98112861.8019543
5925,98112861.8019543
2,6, 1, 6, 0, 3, 0.00,60.00,Friday
213,97847804.60831434
5925,97847804.60831434
2,6, 1, 6, 0, 4, 0.00,60.00,Friday
213,103464461.06722298
5925,103464461.06722295
2,6, 1, 6, 0, 5, 0.00,60.00,Friday
213,100212916.61403075
5925,100212916.61403072
2,6, 1, 6, 0, 6, 0.00,60.00,Friday
213,127913005.66677698
5925,127913005.66677696
2,6, 1, 6, 0, 7, 0.00,60.00,Friday
213,205345759.3771952
5925,205345759.37719524
2,6, 1, 6, 0, 8, 0.00,60.00,Friday
213,198246854.18391407
5925,198246854.18391412
2,6, 1, 6, 0, 9, 0.00,60.00,Friday
213,186073511.41989356
5925,186073511.41989356
2,6, 1, 6, 0,10, 0.00,60.00,Friday
213,177063700.5947579
5925,177063700.5947579
2,6, 1, 6, 0,11, 0.00,60.00,Friday
213,147985458.64200145
5925,147985458.64200142
2,6, 1, 6, 0,12, 0.00,60.00,Friday
213,145582651.68570328
5925,145582651.68570325
2,6, 1, 6, 0,13, 0.00,60.00,Friday
213,135379629.1105454
5925,135379629.1105454
2,6, 1, 6, 0,14, 0.00,60.00,Friday
213,119502187.01336473
5925,119502187.01336476
2,6, 1, 6, 0,15, 0.00,60.00,Friday
213,131249181.1985241
5925,131249181.1985241
2,6, 1, 6, 0,16, 0.00,60.00,Friday
213,136337279.65755266
5925,136337279.65755266
2,6, 1, 6, 0,17, 0.00,60.00,Friday
213,143981336.56035662
5925,143981336.56035668
2,6, 1, 6, 0,18, 0.00,60.00,Friday
213,207628963.3452704
5925,207628963.34527078
2,6, 1, 6, 0,19, 0.00,60.00,Friday
213,224666967.90342513
5925,224666967.90342546
2,6, 1, 6, 0,20, 0.00,60.00,Friday
213,236170629.85012013
5925,236170629.85012046
2,6, 1, 6, 0,21, 0.00,60.00,Friday
213,213176842.84109664
5925,213176842.841097
2,6, 1, 6, 0,22, 0.00,60.00,Friday
213,190917979.7192782
5925,190917979.7192784
2,6, 1, 6, 0,23, 0.00,60.00,Friday
213,177620158.2832498
5925,177620158.2832498
2,6, 1, 6, 0,24, 0.00,60.00,Friday
213,132798123.57639037
5925,132798123.57639039
2,7, 1, 7, 0, 1, 0.00,60.00,Saturday
213,108756186.61800118
5925,108756186.61800118
2,7, 1, 7, 0, 2, 0.00,60.00,Saturday
213,101445153.44197264
5925,101445153.44197263
2,7, 1, 7, 0, 3, 0.00,60.00,Saturday
213,106768161.3692696
5925,106768161.36926961
2,7, 1, 7, 0, 4, 0.00,60.00,Saturday
213,100208131.17344853
5925,100208131.17344853
2,7, 1, 7, 0, 5, 0.00,60.00,Saturday
213,97291969.38790068
5925,97291969.38790068
2,7, 1, 7, 0, 6, 0.00,60.00,Saturday
213,147880192.8124763
5925,147880192.8124763
2,7, 1, 7, 0, 7, 0.00,60.00,Saturday
213,192739674.01013094
5925,192739674.0101309
2,7, 1, 7, 0, 8, 0.00,60.00,Saturday
213,212659490.4758728
5925,212659490.475873
2,7, 1, 7, 0, 9, 0.00,60.00,Saturday
213,179873220.91147918
5925,179873220.91147918
2,7, 1, 7, 0,10, 0.00,60.00,Saturday
213,177115436.39120185
5925,177115436.39120185
2,7, 1, 7, 0,11, 0.00,60.00,Saturday
213,150953502.3395461
5925,150953502.3395461
2,7, 1, 7, 0,12, 0.00,60.00,Saturday
213,149195519.57714865
5925,149195519.57714865
2,7, 1, 7, 0,13, 0.00,60.00,Saturday
213,128878104.4736257
5925,128878104.47362569
2,7, 1, 7, 0,14, 0.00,60.00,Saturday
213,132409347.99565257
5925,132409347.99565259
2,7, 1, 7, 0,15, 0.00,60.00,Saturday
213,109827863.41714421
5925,109827863.41714421
2,7, 1, 7, 0,16, 0.00,60.00,Saturday
213,135325509.82293016
5925,135325509.82293013
2,7, 1, 7, 0,17, 0.00,60.00,Saturday
213,164556158.3162935
5925,164556158.31629354
2,7, 1, 7, 0,18, 0.00,60.00,Saturday
213,197465173.1517496
5925,197465173.15174997
2,7, 1, 7, 0,19, 0.00,60.00,Saturday
213,240381810.47085714
5925,240381810.4708576
2,7, 1, 7, 0,20, 0.00,60.00,Saturday
213,218205079.01427737
5925,218205079.0142777
2,7, 1, 7, 0,21, 0.00,60.00,Saturday
213,235102064.09638464
5925,235102064.09638494
2,7, 1, 7, 0,22, 0.00,60.00,Saturday
213,192540945.00069848
5925,192540945.0006987
2,7, 1, 7, 0,23, 0.00,60.00,Saturday
213,171447525.99348992
5925,171447525.9934899
2,7, 1, 7, 0,24, 0.00,60.00,Saturday
213,133463483.67443751
5925,133463483.6744375
2,8, 1, 8, 0, 1, 0.00,60.00,Sunday
213,102340091.52486284
5925,102340091.52486284
2,8, 1, 8, 0, 2, 0.00,60.00,Sunday
213,113607141.82262753
5925,113607141.82262754
2,8, 1, 8, 0, 3, 0.00,60.00,Sunday
213,93035411.11654532
5925,93035411.11654533
2,8, 1, 8, 0, 4, 0.00,60.00,Sunday
213,92852269.76939358
5925,92852269.76939356
2,8, 1, 8, 0, 5, 0.00,60.00,Sunday
213,117025477.79128197
5925,117025477.79128197
2,8, 1, 8, 0, 6, 0.00,60.00,Sunday
213,136936110.27127665
5925,136936110.27127665
2,8, 1, 8, 0, 7, 0.00,60.00,Sunday
213,202904243.1375725
5925,202904243.13757247
2,8, 1, 8, 0, 8, 0.00,60.00,Sunday
213,204029324.42759496
5925,204029324.42759514
2,8, 1, 8, 0, 9, 0.00,60.00,Sunday
213,188303438.65401196
5925,188303438.65401202
2,8, 1, 8, 0,10, 0.00,60.00,Sunday
213,171593774.84400952
5925,171593774.84400952
2,8, 1, 8, 0,11, 0.00,60.00,Sunday
213,149780636.5661895
5925,149780636.56618947
2,8, 1, 8, 0,12, 0.00,60.00,Sunday
213,141027585.1962382
5925,141027585.1962382
2,8, 1, 8, 0,13, 0.00,60.00,Sunday
213,132507531.91927658
5925,132507531.91927655
2,8, 1, 8, 0,14, 0.00,60.00,Sunday
213,115511254.6807898
5925,115511254.68078983
2,8, 1, 8, 0,15, 0.00,60.00,Sunday
213,120105573.73369458
5925,120105573.73369457
2,8, 1, 8, 0,16, 0.00,60.00,Sunday
213,122112863.56222503
5925,122112863.56222501
2,8, 1, 8, 0,17, 0.00,60.00,Sunday
213,150496190.45340765
5925,150496190.45340765
2,8, 1, 8, 0,18, 0.00,60.00,Sunday
213,214552723.50022876
5925,214552723.50022906
2,8, 1, 8, 0,19, 0.00,60.00,Sunday
213,216275335.32821718
5925,216275335.32821748
2,8, 1, 8, 0,20, 0.00,60.00,Sunday
213,235532294.1099158
5925,235532294.1099161
2,8, 1, 8, 0,21, 0.00,60.00,Sunday
213,212614642.0527072
5925,212614642.05270752
2,8, 1, 8, 0,22, 0.00,60.00,Sunday
213,197902031.83230296
5925,197902031.83230314
2,8, 1, 8, 0,23, 0.00,60.00,Sunday
213,169568509.73497862
5925,169568509.73497856
2,8, 1, 8, 0,24, 0.00,60.00,Sunday
213,131780404.99009424
5925,131780404.99009424
2,9, 1, 9, 0, 1, 0.00,60.00,Monday
213,114058044.28115398
5925,114058044.28115396
2,9, 1, 9, 0, 2, 0.00,60.00,Monday
213,93066833.9262563
5925,93066833.92625631
2,9, 1, 9, 0, 3, 0.00,60.00,Monday
213,109936347.54245634
5925,109936347.54245637
2,9, 1, 9, 0, 4, 0.00,60.00,Monday
213,94483522.52868575
5925,94483522.52868573
2,9, 1, 9, 0, 5, 0.00,60.00,Monday
213,103803234.93630844
5925,103803234.93630844
2,9, 1, 9, 0, 6, 0.00,60.00,Monday
213,137366406.88164762
5925,137366406.88164762
2,9, 1, 9, 0, 7, 0.00,60.00,Monday
213,203836758.40494627
5925,203836758.4049463
2,9, 1, 9, 0, 8, 0.00,60.00,Monday
213,201080783.88587478
5925,201080783.88587496
2,9, 1, 9, 0, 9, 0.00,60.00,Monday
213,197680488.37121058
5925,197680488.37121072
2,9, 1, 9, 0,10, 0.00,60.00,Monday
213,172823789.15435392
5925,172823789.15435392
2,9, 1, 9, 0,11, 0.00,60.00,Monday
213,157310068.1598349
5925,157310068.1598349
2,9, 1, 9, 0,12, 0.00,60.00,Monday
213,136998898.67960256
5925,136998898.6796026
2,9, 1, 9, 0,13, 0.00,60.00,Monday
213,140633697.71883214
5925,140633697.71883214
2,9, 1, 9, 0,14, 0.00,60.00,Monday
213,127382817.7658049
5925,127382817.76580489
2,9, 1, 9, 0,15, 0.00,60.00,Monday
213,115957078.7549531
5925,115957078.75495309
2,9, 1, 9, 0,16, 0.00,60.00,Monday
213,137117448.5562947
5925,137117448.55629474
2,9, 1, 9, 0,17, 0.00,60.00,Monday
213,155960164.7943309
5925,155960164.7943309
2,9, 1, 9, 0,18, 0.00,60.00,Monday
213,192152766.21880123
5925,192152766.21880156
2,9, 1, 9, 0,19, 0.00,60.00,Monday
213,233216063.64510164
5925,233216063.645102
2,9, 1, 9, 0,20, 0.00,60.00,Monday
213,220775649.4310494
5925,220775649.43104976
2,9, 1, 9, 0,21, 0.00,60.00,Monday
213,225006656.1070635
5925,225006656.10706383
2,9, 1, 9, 0,22, 0.00,60.00,Monday
213,196520815.1534899
5925,196520815.15349007
2,9, 1, 9, 0,23, 0.00,60.00,Monday
213,164254215.58196867
5925,164254215.58196864
2,9, 1, 9, 0,24, 0.00,60.00,Monday
213,135562943.8522185
5925,135562943.8522185
2,10, 1,10, 0, 1, 0.00,60.00,Tuesday
213,102237394.07624148
5925,102237394.07624145
2,10, 1,10, 0, 2, 0.00,60.00,Tuesday
213,105295828.05103599
5925,105295828.05103599
2,10, 1,10, 0, 3, 0.00,60.00,Tuesday
213,99995985.48846792
5925,99995985.48846793
2,10, 1,10, 0, 4, 0.00,60.00,Tuesday
213,91914469.62694415
5925,91914469.62694415
2,10, 1,10, 0, 5, 0.00,60.00,Tuesday
213,116271472.0406211
5925,116271472.0406211
2,10, 1,10, 0, 6, 0.00,60.00,Tuesday
213,133164977.14224255
5925,133164977.14224257
2,10, 1,10, 0, 7, 0.00,60.00,Tuesday
213,207022032.63915494
5925,207022032.6391549
2,10, 1,10, 0, 8, 0.00,60.00,Tuesday
213,200533379.38519406
5925,200533379.3851942
2,10, 1,10, 0, 9, 0.00,60.00,Tuesday
213,195289258.5774346
5925,195289258.57743472
2,10, 1,10, 0,10, 0.00,60.00,Tuesday
213,169312491.20213428
5925,169312491.20213425
2,10, 1,10, 0,11, 0.00,60.00,Tuesday
213,162622083.71895123
5925,162622083.71895123
2,10, 1,10, 0,12, 0.00,60.00,Tuesday
213,135997835.08006802
5925,135997835.080068
2,10, 1,10, 0,13, 0.00,60.00,Tuesday
213,135753008.58057365
5925,135753008.58057362
2,10, 1,10, 0,14, 0.00,60.00,Tuesday
213,115409503.80761959
5925,115409503.80761957
2,10, 1,10, 0,15, 0.00,60.00,Tuesday
213,131750110.15490913
5925,131750110.1549091
2,10, 1,10, 0,16, 0.00,60.00,Tuesday
213,127095758.88712242
5925,127095758.88712238
2,10, 1,10, 0,17, 0.00,60.00,Tuesday
213,149498707.27040952
5925,149498707.27040952
2,10, 1,10, 0,18, 0.00,60.00,Tuesday
213,198367290.92982355
5925,198367290.92982388
2,10, 1,10, 0,19, 0.00,60.00,Tuesday
213,220295630.11402038
5925,220295630.1140207
2,10, 1,10, 0,20, 0.00,60.00,Tuesday
213,229807198.76961592
5925,229807198.76961625
2,10, 1,10, 0,21, 0.00,60.00,Tuesday
213,208146053.62773588
5925,208146053.6277362
2,10, 1,10, 0,22, 0.00,60.00,Tuesday
213,193682830.81539053
5925,193682830.81539068
2,10, 1,10, 0,23, 0.00,60.00,Tuesday
213,164782938.7950353
5925,164782938.7950353
2,10, 1,10, 0,24, 0.00,60.00,Tuesday
213,126277613.16964991
5925,126277613.1696499
2,11, 1,11, 0, 1, 0.00,60.00,Wednesday
213,107145702.5484965
5925,107145702.54849648
2,11, 1,11, 0, 2, 0.00,60.00,Wednesday
213,86724234.20031637
5925,86724234.20031637
2,11, 1,11, 0, 3, 0.00,60.00,Wednesday
213,101886248.57978036
5925,101886248.57978034
2,11, 1,11, 0, 4, 0.00,60.00,Wednesday
213,90267990.99095437
5925,90267990.99095435
2,11, 1,11, 0, 5, 0.00,60.00,Wednesday
213,92476896.31768857
5925,92476896.31768858
2,11, 1,11, 0, 6, 0.00,60.00,Wednesday
213,137314123.2666306
5925,137314123.2666306
2,11, 1,11, 0, 7, 0.00,60.00,Wednesday
213,190083847.77739835
5925,190083847.77739835
2,11, 1,11, 0, 8, 0.00,60.00,Wednesday
213,197030569.6133052
5925,197030569.61330518
2,11, 1,11, 0, 9, 0.00,60.00,Wednesday
213,184563926.3100163
5925,184563926.3100163
2,11, 1,11, 0,10, 0.00,60.00,Wednesday
213,173648873.8025154
5925,173648873.8025154
2,11, 1,11, 0,11, 0.00,60.00,Wednesday
213,159640606.5363365
5925,159640606.5363365
2,11, 1,11, 0,12, 0.00,60.00,Wednesday
213,149424059.24785143
5925,149424059.24785143
2,11, 1,11, 0,13, 0.00,60.00,Wednesday
213,139363921.3915899
5925,139363921.39158994
2,11, 1,11, 0,14, 0.00,60.00,Wednesday
213,136241928.75532985
5925,136241928.75532985
2,11, 1,11, 0,15, 0.00,60.00,Wednesday
213,128312755.0292908
5925,128312755.02929078
2,11, 1,11, 0,16, 0.00,60.00,Wednesday
213,147490932.46318492
5925,147490932.46318492
2,11, 1,11, 0,17, 0.00,60.00,Wednesday
213,167541544.5627786
5925,167541544.56277877
2,11, 1,11, 0,18, 0.00,60.00,Wednesday
213,202840034.90489236
5925,202840034.90489274
2,11, 1,11, 0,19, 0.00,60.00,Wednesday
213,242809936.32721713
5925,242809936.32721743
2,11, 1,11, 0,20, 0.00,60.00,Wednesday
213,234998066.06369594
5925,234998066.06369632
2,11, 1,11, 0,21, 0.00,60.00,Wednesday
213,222100442.37842676
5925,222100442.37842706
2,11, 1,11, 0,22, 0.00,60.00,Wednesday
213,200863240.66359678
5925,200863240.66359696
2,11, 1,11, 0,23, 0.00,60.00,Wednesday
213,168537790.72774675
5925,168537790.72774675
2,11, 1,11, 0,24, 0.00,60.00,Wednesday
213,137964756.12336382
5925,137964756.1233638
2,12, 1,12, 0, 1, 0.00,60.00,Thursday
213,103239805.74107775
5925,103239805.74107774
2,12, 1,12, 0, 2, 0.00,60.00,Thursday
213,106202790.79031685
5925,106202790.79031685
2,12, 1,12, 0, 3, 0.00,60.00,Thursday
213,99873517.17497541
5925,99873517.17497541
2,12, 1,12, 0, 4, 0.00,60.00,Thursday
213,102699429.38416465
5925,102699429.38416465
2,12, 1,12, 0, 5, 0.00,60.00,Thursday
213,103046364.002145
5925,103046364.00214499
2,12, 1,12, 0, 6, 0.00,60.00,Thursday
213,137364840.21063313
5925,137364840.21063313
2,12, 1,12, 0, 7, 0.00,60.00,Thursday
213,204072417.14995196
5925,204072417.14995193
2,12, 1,12, 0, 8, 0.00,60.00,Thursday
213,201987401.06014785
5925,201987401.06014797
2,12, 1,12, 0, 9, 0.00,60.00,Thursday
213,195304805.855014
5925,195304805.8550141
2,12, 1,12, 0,10, 0.00,60.00,Thursday
213,176989203.74691036
5925,176989203.74691036
2,12, 1,12, 0,11, 0.00,60.00,Thursday
213,163252613.96255222
5925,163252613.96255222
2,12, 1,12, 0,12, 0.00,60.00,Thursday
213,152795176.9364211
5925,152795176.93642113
2,12, 1,12, 0,13, 0.00,60.00,Thursday
213,150870655.70223093
5925,150870655.70223093
2,12, 1,12, 0,14, 0.00,60.00,Thursday
213,137718798.49619302
5925,137718798.49619302
2,12, 1,12, 0,15, 0.00,60.00,Thursday
213,134322393.78354913
5925,134322393.78354913
2,12, 1,12, 0,16, 0.00,60.00,Thursday
213,147098958.16897583
5925,147098958.16897583
2,12, 1,12, 0,17, 0.00,60.00,Thursday
213,167980779.3955754
5925,167980779.39557558
2,12, 1,12, 0,18, 0.00,60.00,Thursday
213,214472724.24709105
5925,214472724.2470914
2,12, 1,12, 0,19, 0.00,60.00,Thursday
213,238416454.96489123
5925,238416454.96489155
2,12, 1,12, 0,20, 0.00,60.00,Thursday
213,234280607.45509762
5925,234280607.45509794
2,12, 1,12, 0,21, 0.00,60.00,Thursday
213,226763201.84991524
5925,226763201.84991556
2,12, 1,12, 0,22, 0.00,60.00,Thursday
213,204634841.33382368
5925,204634841.33382386
2,12, 1,12, 0,23, 0.00,60.00,Thursday
213,165062995.37811348
5925,165062995.37811348
2,12, 1,12, 0,24, 0.00,60.00,Thursday
213,143263557.44000444
5925,143263557.4400044
2,13, 1,13, 0, 1, 0.00,60.00,Friday
213,111324048.99003303
5925,111324048.990033
2,13, 1,13, 0, 2, 0.00,60.00,Friday
213,98716563.46345022
5925,98716563.46345022
2,13, 1,13, 0, 3, 0.00,60.00,Friday
213,108466890.44078326
5925,108466890.44078328
2,13, 1,13, 0, 4, 0.00,60.00,Friday
213,98151383.24924046
5925,98151383.24924046
2,13, 1,13, 0, 5, 0.00,60.00,Friday
213,110395868.22504616
5925,110395868.22504616
2,13, 1,13, 0, 6, 0.00,60.00,Friday
213,138380980.92593092
5925,138380980.92593092
2,13, 1,13, 0, 7, 0.00,60.00,Friday
213,205692209.7801122
5925,205692209.7801122
2,13, 1,13, 0, 8, 0.00,60.00,Friday
213,201683344.53008407
5925,201683344.53008425
2,13, 1,13, 0, 9, 0.00,60.00,Friday
213,195389681.9348494
5925,195389681.93484956
2,13, 1,13, 0,10, 0.00,60.00,Friday
213,173704362.5042906
5925,173704362.50429058
2,13, 1,13, 0,11, 0.00,60.00,Friday
213,169088635.2763976
5925,169088635.2763976
2,13, 1,13, 0,12, 0.00,60.00,Friday
213,153850069.28894237
5925,153850069.28894237
2,13, 1,13, 0,13, 0.00,60.00,Friday
213,144762425.120708
5925,144762425.120708
2,13, 1,13, 0,14, 0.00,60.00,Friday
213,138201031.11604193
5925,138201031.1160419
2,13, 1,13, 0,15, 0.00,60.00,Friday
213,137768592.1619449
5925,137768592.1619449
2,13, 1,13, 0,16, 0.00,60.00,Friday
213,140361552.41676408
5925,140361552.41676408
2,13, 1,13, 0,17, 0.00,60.00,Friday
213,170704474.27982026
5925,170704474.2798204
2,13, 1,13, 0,18, 0.00,60.00,Friday
213,211040201.48584035
5925,211040201.4858407
2,13, 1,13, 0,19, 0.00,60.00,Friday
213,242395839.50174588
5925,242395839.5017462
2,13, 1,13, 0,20, 0.00,60.00,Friday
213,236543882.23770598
5925,236543882.2377063
2,13, 1,13, 0,21, 0.00,60.00,Friday
213,226281027.3069083
5925,226281027.3069086
2,13, 1,13, 0,22, 0.00,60.00,Friday
213,202013168.31352434
5925,202013168.31352457
2,13, 1,13, 0,23, 0.00,60.00,Friday
213,174379724.91293555
5925,174379724.91293558
2,13, 1,13, 0,24, 0.00,60.00,Friday
213,135831040.0345146
5925,135831040.03451464
2,14, 1,14, 0, 1, 0.00,60.00,Saturday
213,114463720.08500293
5925,114463720.08500293
2,14, 1,14, 0, 2, 0.00,60.00,Saturday
213,102719679.32803744
5925,102719679.32803746
2,14, 1,14, 0, 3, 0.00,60.00,Saturday
213,99203963.77477027
5925,99203963.7747703
2,14, 1,14, 0, 4, 0.00,60.00,Saturday
213,104545506.93335164
5925,104545506.93335164
2,14, 1,14, 0, 5, 0.00,60.00,Saturday
213,107393172.96194279
5925,107393172.96194282
2,14, 1,14, 0, 6, 0.00,60.00,Saturday
213,136031383.5646337
5925,136031383.56463367
2,14, 1,14, 0, 7, 0.00,60.00,Saturday
213,207751654.18406725
5925,207751654.18406725
2,14, 1,14, 0, 8, 0.00,60.00,Saturday
213,203261708.06792495
5925,203261708.06792507
2,14, 1,14, 0, 9, 0.00,60.00,Saturday
213,188172477.58587074
5925,188172477.58587077
2,14, 1,14, 0,10, 0.00,60.00,Saturday
213,179443602.5280267
5925,179443602.5280267
2,14, 1,14, 0,11, 0.00,60.00,Saturday
213,156961629.7407729
5925,156961629.7407729
2,14, 1,14, 0,12, 0.00,60.00,Saturday
213,150270725.74886563
5925,150270725.7488656
2,14, 1,14, 0,13, 0.00,60.00,Saturday
213,145171934.69030324
5925,145171934.69030324
2,14, 1,14, 0,14, 0.00,60.00,Saturday
213,137851302.51099572
5925,137851302.51099572
2,14, 1,14, 0,15, 0.00,60.00,Saturday
213,129229080.93197918
5925,129229080.93197915
2,14, 1,14, 0,16, 0.00,60.00,Saturday
213,147932891.80172163
5925,147932891.80172163
2,14, 1,14, 0,17, 0.00,60.00,Saturday
213,167567860.4080814
5925,167567860.40808162
2,14, 1,14, 0,18, 0.00,60.00,Saturday
213,210196443.54878813
5925,210196443.54878846
2,14, 1,14, 0,19, 0.00,60.00,Saturday
213,244508423.38532433
5925,244508423.38532472
2,14, 1,14, 0,20, 0.00,60.00,Saturday
213,230200520.88106358
5925,230200520.88106394
2,14, 1,14, 0,21, 0.00,60.00,Saturday
213,234582666.97530425
5925,234582666.97530457
2,14, 1,14, 0,22, 0.00,60.00,Saturday
213,201522397.48819473
5925,201522397.48819494
2,14, 1,14, 0,23, 0.00,60.00,Saturday
213,176980360.09809583
5925,176980360.09809583
2,14, 1,14, 0,24, 0.00,60.00,Saturday
213,133093590.372542
5925,133093590.37254196
2,15, 1,15, 0, 1, 0.00,60.00,Sunday
213,107974483.60658155
5925,107974483.60658154
2,15, 1,15, 0, 2, 0.00,60.00,Sunday
213,107990724.50103068
5925,107990724.5010307
2,15, 1,15, 0, 3, 0.00,60.00,Sunday
213,101906047.5022928
5925,101906047.5022928
2,15, 1,15, 0, 4, 0.00,60.00,Sunday
213,97701214.61188744
5925,97701214.61188744
2,15, 1,15, 0, 5, 0.00,60.00,Sunday
213,113642690.26655501
5925,113642690.26655498
2,15, 1,15, 0, 6, 0.00,60.00,Sunday
213,135655797.56246537
5925,135655797.56246537
2,15, 1,15, 0, 7, 0.00,60.00,Sunday
213,203211383.00679895
5925,203211383.00679892
2,15, 1,15, 0, 8, 0.00,60.00,Sunday
213,203158025.12061617
5925,203158025.12061638
2,15, 1,15, 0, 9, 0.00,60.00,Sunday
213,192368024.0400646
5925,192368024.0400646
2,15, 1,15, 0,10, 0.00,60.00,Sunday
213,173802611.45519677
5925,173802611.45519677
2,15, 1,15, 0,11, 0.00,60.00,Sunday
213,163134222.1597487
5925,163134222.1597487
2,15, 1,15, 0,12, 0.00,60.00,Sunday
213,150451090.54771328
5925,150451090.54771328
2,15, 1,15, 0,13, 0.00,60.00,Sunday
213,146554328.26500237
5925,146554328.26500234
2,15, 1,15, 0,14, 0.00,60.00,Sunday
213,132170956.96548727
5925,132170956.9654873
2,15, 1,15, 0,15, 0.00,60.00,Sunday
213,140164692.4876691
5925,140164692.48766908
2,15, 1,15, 0,16, 0.00,60.00,Sunday
213,141338314.55016106
5925,141338314.55016106
2,15, 1,15, 0,17, 0.00,60.00,Sunday
213,163226524.264942
5925,163226524.26494217