Program Version,EnergyPlus, Version 26.1.0-6f2e40d102, YMD=2026.04.14 19:46
1,5,Environment Title[],Latitude[deg],Longitude[deg],Time Zone[],Elevation[m]
2,8,Day of Simulation[],Month[],Day of Month[],DST Indicator[1=yes 0=no],Hour[],StartMinute[],EndMinute[],DayType
3,5,Cumulative Day of Simulation[],Month[],Day of Month[],DST Indicator[1=yes 0=no],DayType  ! When Daily Meters Requested
4,2,Cumulative Days of Simulation[],Month[]  ! When Monthly Meters Requested
5,1,Cumulative Days of Simulation[] ! When Run Period Meters Requested
6,1,Calendar Year of Simulation[] ! When Annual Meters Requested
213,1,Electricity:Facility [J] !Hourly
5925,1,ElectricityNet:Facility [J] !Hourly
End of Data Dictionary
1,RUNPERIOD 1,  28.11, 112.79,   8.00, 120.00
2,1, 1, 1, 0, 1, 0.00,60.00,Sunday
213,85780853.63144913
5925,85780853.6314491
2,1, 1, 1, 0, 2, 0.00,60.00,Sunday
213,88968190.62560856
5925,88968190.62560856
2,1, 1, 1, 0, 3, 0.00,60.00,Sunday
213,93800758.9257844
5925,93800758.92578441
2,1, 1, 1, 0, 4, 0.00,60.00,Sunday
213,87074291.24459603
5925,87074291.24459605
2,1, 1, 1, 0, 5, 0.00,60.00,Sunday
213,97005300.29417814
5925,97005300.29417813
2,1, 1, 1, 0, 6, 0.00,60.00,Sunday
213,123649529.13125367
5925,123649529.13125366
2,1, 1, 1, 0, 7, 0.00,60.00,Sunday
213,189002876.77524427
5925,189002876.77524418
2,1, 1, 1, 0, 8, 0.00,60.00,Sunday
213,193044276.915552
5925,193044276.915552
2,1, 1, 1, 0, 9, 0.00,60.00,Sunday
213,172732277.37248614
5925,172732277.3724861
2,1, 1, 1, 0,10, 0.00,60.00,Sunday
213,152761337.40412286
5925,152761337.40412286
2,1, 1, 1, 0,11, 0.00,60.00,Sunday
213,153467127.8547728
5925,153467127.85477278
2,1, 1, 1, 0,12, 0.00,60.00,Sunday
213,136323289.77933326
5925,136323289.77933326
2,1, 1, 1, 0,13, 0.00,60.00,Sunday
213,125195483.4264088
5925,125195483.42640877
2,1, 1, 1, 0,14, 0.00,60.00,Sunday
213,129575910.90117374
5925,129575910.90117374
2,1, 1, 1, 0,15, 0.00,60.00,Sunday
213,110162340.54320255
5925,110162340.54320253
2,1, 1, 1, 0,16, 0.00,60.00,Sunday
213,136278051.5240228
5925,136278051.52402282
2,1, 1, 1, 0,17, 0.00,60.00,Sunday
213,154991209.6047448
5925,154991209.60474482
2,1, 1, 1, 0,18, 0.00,60.00,Sunday
213,195623858.38769594
5925,195623858.38769633
2,1, 1, 1, 0,19, 0.00,60.00,Sunday
213,233595609.78275982
5925,233595609.7827601
2,1, 1, 1, 0,20, 0.00,60.00,Sunday
213,217126154.45920426
5925,217126154.45920452
2,1, 1, 1, 0,21, 0.00,60.00,Sunday
213,220199360.91872156
5925,220199360.9187218
2,1, 1, 1, 0,22, 0.00,60.00,Sunday
213,191024008.64432564
5925,191024008.64432576
2,1, 1, 1, 0,23, 0.00,60.00,Sunday
213,161966197.41598073
5925,161966197.41598064
2,1, 1, 1, 0,24, 0.00,60.00,Sunday
213,124906485.24172375
5925,124906485.24172376
2,2, 1, 2, 0, 1, 0.00,60.00,Holiday
213,93107694.57475877
5925,93107694.57475874
2,2, 1, 2, 0, 2, 0.00,60.00,Holiday
213,95487243.11090094
5925,95487243.11090095
2,2, 1, 2, 0, 3, 0.00,60.00,Holiday
213,86694018.40442841
5925,86694018.40442844
2,2, 1, 2, 0, 4, 0.00,60.00,Holiday
213,81793240.8029261
5925,81793240.8029261
2,2, 1, 2, 0, 5, 0.00,60.00,Holiday
213,97415282.68789205
5925,97415282.68789206
2,2, 1, 2, 0, 6, 0.00,60.00,Holiday
213,124082857.1245228
5925,124082857.12452278
2,2, 1, 2, 0, 7, 0.00,60.00,Holiday
213,189672937.81569704
5925,189672937.815697
2,2, 1, 2, 0, 8, 0.00,60.00,Holiday
213,193820296.62033635
5925,193820296.62033638
2,2, 1, 2, 0, 9, 0.00,60.00,Holiday
213,173407575.1177811
5925,173407575.11778107
2,2, 1, 2, 0,10, 0.00,60.00,Holiday
213,153533546.9954393
5925,153533546.9954393
2,2, 1, 2, 0,11, 0.00,60.00,Holiday
213,154573187.79380572
5925,154573187.7938057
2,2, 1, 2, 0,12, 0.00,60.00,Holiday
213,140956446.09287903
5925,140956446.09287906
2,2, 1, 2, 0,13, 0.00,60.00,Holiday
213,132592033.30467518
5925,132592033.30467516
2,2, 1, 2, 0,14, 0.00,60.00,Holiday
213,117132732.92474066
5925,117132732.92474069
2,2, 1, 2, 0,15, 0.00,60.00,Holiday
213,122326912.14609216
5925,122326912.14609212
2,2, 1, 2, 0,16, 0.00,60.00,Holiday
213,121284515.93427947
5925,121284515.93427947
2,2, 1, 2, 0,17, 0.00,60.00,Holiday
213,162452623.8867471
5925,162452623.8867471
2,2, 1, 2, 0,18, 0.00,60.00,Holiday
213,192573655.6396545
5925,192573655.6396548
2,2, 1, 2, 0,19, 0.00,60.00,Holiday
213,234009896.3721845
5925,234009896.37218475
2,2, 1, 2, 0,20, 0.00,60.00,Holiday
213,223818768.12058944
5925,223818768.1205898
2,2, 1, 2, 0,21, 0.00,60.00,Holiday
213,210506963.26854178
5925,210506963.26854202
2,2, 1, 2, 0,22, 0.00,60.00,Holiday
213,188266648.91406453
5925,188266648.9140647
2,2, 1, 2, 0,23, 0.00,60.00,Holiday
213,162451887.31184646
5925,162451887.31184644
2,2, 1, 2, 0,24, 0.00,60.00,Holiday
213,125416796.970937
5925,125416796.97093703
2,3, 1, 3, 0, 1, 0.00,60.00,Tuesday
213,106742171.89920843
5925,106742171.8992084
2,3, 1, 3, 0, 2, 0.00,60.00,Tuesday
213,89972437.60416201
5925,89972437.60416201
2,3, 1, 3, 0, 3, 0.00,60.00,Tuesday
213,81684881.39478871
5925,81684881.39478873
2,3, 1, 3, 0, 4, 0.00,60.00,Tuesday
213,94160358.00331673
5925,94160358.00331673
2,3, 1, 3, 0, 5, 0.00,60.00,Tuesday
213,91971387.68140048
5925,91971387.68140048
2,3, 1, 3, 0, 6, 0.00,60.00,Tuesday
213,126147936.30024157
5925,126147936.30024157
2,3, 1, 3, 0, 7, 0.00,60.00,Tuesday
213,191494978.93870848
5925,191494978.93870848
2,3, 1, 3, 0, 8, 0.00,60.00,Tuesday
213,187166741.93814585
5925,187166741.93814588
2,3, 1, 3, 0, 9, 0.00,60.00,Tuesday
213,185984414.46096337
5925,185984414.46096337
2,3, 1, 3, 0,10, 0.00,60.00,Tuesday
213,164355061.29133505
5925,164355061.291335
2,3, 1, 3, 0,11, 0.00,60.00,Tuesday
213,153335550.3050852
5925,153335550.3050852
2,3, 1, 3, 0,12, 0.00,60.00,Tuesday
213,138352641.18839633
5925,138352641.1883963
2,3, 1, 3, 0,13, 0.00,60.00,Tuesday
213,136733089.10629562
5925,136733089.1062956
2,3, 1, 3, 0,14, 0.00,60.00,Tuesday
213,121750437.71298212
5925,121750437.71298213
2,3, 1, 3, 0,15, 0.00,60.00,Tuesday
213,134433374.68813807
5925,134433374.68813804
2,3, 1, 3, 0,16, 0.00,60.00,Tuesday
213,139542497.2632038
5925,139542497.2632038
2,3, 1, 3, 0,17, 0.00,60.00,Tuesday
213,146701643.84554523
5925,146701643.84554535
2,3, 1, 3, 0,18, 0.00,60.00,Tuesday
213,207411431.0564723
5925,207411431.05647266
2,3, 1, 3, 0,19, 0.00,60.00,Tuesday
213,221079488.6202619
5925,221079488.6202622
2,3, 1, 3, 0,20, 0.00,60.00,Tuesday
213,231824645.56489268
5925,231824645.564893
2,3, 1, 3, 0,21, 0.00,60.00,Tuesday
213,207655262.4640508
5925,207655262.46405113
2,3, 1, 3, 0,22, 0.00,60.00,Tuesday
213,191836619.01210266
5925,191836619.0121028
2,3, 1, 3, 0,23, 0.00,60.00,Tuesday
213,162689335.10854444
5925,162689335.10854444
2,3, 1, 3, 0,24, 0.00,60.00,Tuesday
213,124141317.9164207
5925,124141317.91642071
2,4, 1, 4, 0, 1, 0.00,60.00,Wednesday
213,98567273.52592428
5925,98567273.52592427
2,4, 1, 4, 0, 2, 0.00,60.00,Wednesday
213,89970675.85053861
5925,89970675.85053861
2,4, 1, 4, 0, 3, 0.00,60.00,Wednesday
213,96256169.77078976
5925,96256169.77078977
2,4, 1, 4, 0, 4, 0.00,60.00,Wednesday
213,89437432.65163916
5925,89437432.65163916
2,4, 1, 4, 0, 5, 0.00,60.00,Wednesday
213,85241200.81208235
5925,85241200.81208235
2,4, 1, 4, 0, 6, 0.00,60.00,Wednesday
213,125083122.64514767
5925,125083122.64514765
2,4, 1, 4, 0, 7, 0.00,60.00,Wednesday
213,190452138.82554385
5925,190452138.82554385
2,4, 1, 4, 0, 8, 0.00,60.00,Wednesday
213,194908055.4105502
5925,194908055.4105502
2,4, 1, 4, 0, 9, 0.00,60.00,Wednesday
213,178418152.0596442
5925,178418152.0596442
2,4, 1, 4, 0,10, 0.00,60.00,Wednesday
213,171702597.67449868
5925,171702597.67449868
2,4, 1, 4, 0,11, 0.00,60.00,Wednesday
213,144734778.59051162
5925,144734778.5905116
2,4, 1, 4, 0,12, 0.00,60.00,Wednesday
213,143443198.18803316
5925,143443198.18803316
2,4, 1, 4, 0,13, 0.00,60.00,Wednesday
213,134005989.31273666
5925,134005989.31273666
2,4, 1, 4, 0,14, 0.00,60.00,Wednesday
213,132310458.1659861
5925,132310458.16598609
2,4, 1, 4, 0,15, 0.00,60.00,Wednesday
213,113172435.41692606
5925,113172435.41692606
2,4, 1, 4, 0,16, 0.00,60.00,Wednesday
213,138784993.11834955
5925,138784993.11834955
2,4, 1, 4, 0,17, 0.00,60.00,Wednesday
213,165477121.6399025
5925,165477121.6399026
2,4, 1, 4, 0,18, 0.00,60.00,Wednesday
213,193599951.5318937
5925,193599951.53189406
2,4, 1, 4, 0,19, 0.00,60.00,Wednesday
213,234380916.8869482
5925,234380916.88694853
2,4, 1, 4, 0,20, 0.00,60.00,Wednesday
213,209317918.70993727
5925,209317918.7099376
2,4, 1, 4, 0,21, 0.00,60.00,Wednesday
213,227141665.04052255
5925,227141665.04052284
2,4, 1, 4, 0,22, 0.00,60.00,Wednesday
213,186234821.02907386
5925,186234821.02907407
2,4, 1, 4, 0,23, 0.00,60.00,Wednesday
213,148464103.4532511
5925,148464103.45325106
2,4, 1, 4, 0,24, 0.00,60.00,Wednesday
213,137912695.35186413
5925,137912695.35186413
2,5, 1, 5, 0, 1, 0.00,60.00,Thursday
213,92964691.33469711
5925,92964691.33469711
2,5, 1, 5, 0, 2, 0.00,60.00,Thursday
213,102421394.05286884
5925,102421394.05286884
2,5, 1, 5, 0, 3, 0.00,60.00,Thursday
213,82192948.64392826
5925,82192948.64392824
2,5, 1, 5, 0, 4, 0.00,60.00,Thursday
213,81411701.4746718
5925,81411701.47467178
2,5, 1, 5, 0, 5, 0.00,60.00,Thursday
213,104353178.5135037
5925,104353178.51350369
2,5, 1, 5, 0, 6, 0.00,60.00,Thursday
213,125396962.51658729
5925,125396962.51658727
2,5, 1, 5, 0, 7, 0.00,60.00,Thursday
213,191114484.5744598
5925,191114484.57445985
2,5, 1, 5, 0, 8, 0.00,60.00,Thursday
213,186992673.26827055
5925,186992673.26827055
2,5, 1, 5, 0, 9, 0.00,60.00,Thursday
213,184546374.44081062
5925,184546374.44081062
2,5, 1, 5, 0,10, 0.00,60.00,Thursday
213,147315881.6894571
5925,147315881.68945712
2,5, 1, 5, 0,11, 0.00,60.00,Thursday
213,161934201.51199436
5925,161934201.51199436
2,5, 1, 5, 0,12, 0.00,60.00,Thursday
213,132542996.27945338
5925,132542996.27945338
2,5, 1, 5, 0,13, 0.00,60.00,Thursday
213,124527644.01111136
5925,124527644.01111135
2,5, 1, 5, 0,14, 0.00,60.00,Thursday
213,121137614.9656303
5925,121137614.96563031
2,5, 1, 5, 0,15, 0.00,60.00,Thursday
213,127219073.07401714
5925,127219073.07401714
2,5, 1, 5, 0,16, 0.00,60.00,Thursday
213,118909692.70816208
5925,118909692.70816204
2,5, 1, 5, 0,17, 0.00,60.00,Thursday
213,153282342.34880918
5925,153282342.34880924
2,5, 1, 5, 0,18, 0.00,60.00,Thursday
213,188970741.6228188
5925,188970741.62281916
2,5, 1, 5, 0,19, 0.00,60.00,Thursday
213,231235114.47376442
5925,231235114.47376472
2,5, 1, 5, 0,20, 0.00,60.00,Thursday
213,228755817.44750744
5925,228755817.4475077
2,5, 1, 5, 0,21, 0.00,60.00,Thursday
213,204877018.67313275
5925,204877018.67313305
2,5, 1, 5, 0,22, 0.00,60.00,Thursday
213,189278203.48505953
5925,189278203.4850597
2,5, 1, 5, 0,23, 0.00,60.00,Thursday
213,160233171.91104597
5925,160233171.91104594
2,5, 1, 5, 0,24, 0.00,60.00,Thursday
213,121636071.92176175
5925,121636071.92176172
2,6, 1, 6, 0, 1, 0.00,60.00,Friday
213,94424403.51719324
5925,94424403.51719324
2,6, 1, 6, 0, 2, 0.00,60.00,Friday
213,89129554.70030925
5925,89129554.70030923
2,6, 1, 6, 0, 3, 0.00,60.00,Friday
213,86382549.32247037
5925,86382549.32247037
2,6, 1, 6, 0, 4, 0.00,60.00,Friday
213,91970657.07341665
5925,91970657.07341664
2,6, 1, 6, 0, 5, 0.00,60.00,Friday
213,85380320.346342
5925,85380320.34634198
2,6, 1, 6, 0, 6, 0.00,60.00,Friday
213,119986529.65731688
5925,119986529.65731686
2,6, 1, 6, 0, 7, 0.00,60.00,Friday
213,192449316.96708167
5925,192449316.96708167
2,6, 1, 6, 0, 8, 0.00,60.00,Friday
213,188469984.87949347
5925,188469984.87949347
2,6, 1, 6, 0, 9, 0.00,60.00,Friday
213,174440997.63303003
5925,174440997.63303003
2,6, 1, 6, 0,10, 0.00,60.00,Friday
213,165650929.66629016
5925,165650929.66629016
2,6, 1, 6, 0,11, 0.00,60.00,Friday
213,138674552.25190556
5925,138674552.25190556
2,6, 1, 6, 0,12, 0.00,60.00,Friday
213,142153011.5924149
5925,142153011.59241486
2,6, 1, 6, 0,13, 0.00,60.00,Friday
213,139380333.58920363
5925,139380333.58920363
2,6, 1, 6, 0,14, 0.00,60.00,Friday
213,130853700.66987579
5925,130853700.66987579
2,6, 1, 6, 0,15, 0.00,60.00,Friday
213,146346520.66351655
5925,146346520.66351652
2,6, 1, 6, 0,16, 0.00,60.00,Friday
213,141154517.71647155
5925,141154517.71647155
2,6, 1, 6, 0,17, 0.00,60.00,Friday
213,156189648.8761765
5925,156189648.8761765
2,6, 1, 6, 0,18, 0.00,60.00,Friday
213,200535016.39122927
5925,200535016.3912296
2,6, 1, 6, 0,19, 0.00,60.00,Friday
213,215545527.65801176
5925,215545527.65801212
2,6, 1, 6, 0,20, 0.00,60.00,Friday
213,223044844.13928288
5925,223044844.1392832
2,6, 1, 6, 0,21, 0.00,60.00,Friday
213,206982662.13609868
5925,206982662.13609904
2,6, 1, 6, 0,22, 0.00,60.00,Friday
213,180553004.7426381
5925,180553004.7426383
2,6, 1, 6, 0,23, 0.00,60.00,Friday
213,162902192.12021634
5925,162902192.1202163
2,6, 1, 6, 0,24, 0.00,60.00,Friday
213,121260229.45804536
5925,121260229.45804533
2,7, 1, 7, 0, 1, 0.00,60.00,Saturday
213,99867795.73064597
5925,99867795.73064595
2,7, 1, 7, 0, 2, 0.00,60.00,Saturday
213,88336873.5402667
5925,88336873.5402667
2,7, 1, 7, 0, 3, 0.00,60.00,Saturday
213,92702392.10299283
5925,92702392.10299282
2,7, 1, 7, 0, 4, 0.00,60.00,Saturday
213,84518949.87323932
5925,84518949.87323932
2,7, 1, 7, 0, 5, 0.00,60.00,Saturday
213,87791145.06278992
5925,87791145.06278993
2,7, 1, 7, 0, 6, 0.00,60.00,Saturday
213,131429792.01100755
5925,131429792.01100752
2,7, 1, 7, 0, 7, 0.00,60.00,Saturday
213,182773196.72763687
5925,182773196.72763687
2,7, 1, 7, 0, 8, 0.00,60.00,Saturday
213,196321959.39676082
5925,196321959.39676085
2,7, 1, 7, 0, 9, 0.00,60.00,Saturday
213,169273458.69444498
5925,169273458.69444495
2,7, 1, 7, 0,10, 0.00,60.00,Saturday
213,163002590.79326928
5925,163002590.79326925
2,7, 1, 7, 0,11, 0.00,60.00,Saturday
213,136653519.4766091
5925,136653519.47660905
2,7, 1, 7, 0,12, 0.00,60.00,Saturday
213,135501918.08177337
5925,135501918.08177334
2,7, 1, 7, 0,13, 0.00,60.00,Saturday
213,123652644.13469407
5925,123652644.13469407
2,7, 1, 7, 0,14, 0.00,60.00,Saturday
213,125295152.18759441
5925,125295152.18759441
2,7, 1, 7, 0,15, 0.00,60.00,Saturday
213,106009504.00874333
5925,106009504.00874335
2,7, 1, 7, 0,16, 0.00,60.00,Saturday
213,132107717.83166227
5925,132107717.83166225
2,7, 1, 7, 0,17, 0.00,60.00,Saturday
213,154226291.4735753
5925,154226291.4735753
2,7, 1, 7, 0,18, 0.00,60.00,Saturday
213,187787768.82590008
5925,187787768.82590044
2,7, 1, 7, 0,19, 0.00,60.00,Saturday
213,229350516.47663927
5925,229350516.47663963
2,7, 1, 7, 0,20, 0.00,60.00,Saturday
213,210361491.66509503
5925,210361491.66509542
2,7, 1, 7, 0,21, 0.00,60.00,Saturday
213,220272715.10361326
5925,220272715.1036136
2,7, 1, 7, 0,22, 0.00,60.00,Saturday
213,184299442.0222909
5925,184299442.02229106
2,7, 1, 7, 0,23, 0.00,60.00,Saturday
213,152968875.24399024
5925,152968875.24399024
2,7, 1, 7, 0,24, 0.00,60.00,Saturday
213,125215864.51549593
5925,125215864.51549591
2,8, 1, 8, 0, 1, 0.00,60.00,Sunday
213,91681064.9602612
5925,91681064.9602612
2,8, 1, 8, 0, 2, 0.00,60.00,Sunday
213,93203505.08715521
5925,93203505.08715521
2,8, 1, 8, 0, 3, 0.00,60.00,Sunday
213,87205504.1982099
5925,87205504.1982099
2,8, 1, 8, 0, 4, 0.00,60.00,Sunday
213,79504835.63988014
5925,79504835.63988012
2,8, 1, 8, 0, 5, 0.00,60.00,Sunday
213,101924612.08636652
5925,101924612.08636652
2,8, 1, 8, 0, 6, 0.00,60.00,Sunday
213,121777698.92202587
5925,121777698.92202586
2,8, 1, 8, 0, 7, 0.00,60.00,Sunday
213,192237706.31321043
5925,192237706.31321037
2,8, 1, 8, 0, 8, 0.00,60.00,Sunday
213,189158742.97723162
5925,189158742.97723162
2,8, 1, 8, 0, 9, 0.00,60.00,Sunday
213,172791632.52857363
5925,172791632.52857363
2,8, 1, 8, 0,10, 0.00,60.00,Sunday
213,154750634.76811373
5925,154750634.76811373
2,8, 1, 8, 0,11, 0.00,60.00,Sunday
213,144156040.1699211
5925,144156040.16992104
2,8, 1, 8, 0,12, 0.00,60.00,Sunday
213,139068346.8887991
5925,139068346.88879907
2,8, 1, 8, 0,13, 0.00,60.00,Sunday
213,135843418.35846096
5925,135843418.35846093
2,8, 1, 8, 0,14, 0.00,60.00,Sunday
213,136789504.7132478
5925,136789504.7132478
2,8, 1, 8, 0,15, 0.00,60.00,Sunday
213,138817672.92154685
5925,138817672.92154682
2,8, 1, 8, 0,16, 0.00,60.00,Sunday
213,139848232.4653425
5925,139848232.46534252
2,8, 1, 8, 0,17, 0.00,60.00,Sunday
213,159029440.04220694
5925,159029440.04220697
2,8, 1, 8, 0,18, 0.00,60.00,Sunday
213,198808775.40373027
5925,198808775.40373057
2,8, 1, 8, 0,19, 0.00,60.00,Sunday
213,217803110.2030171
5925,217803110.20301738
2,8, 1, 8, 0,20, 0.00,60.00,Sunday
213,219971756.35777906
5925,219971756.35777935
2,8, 1, 8, 0,21, 0.00,60.00,Sunday
213,209410142.23276535
5925,209410142.23276567
2,8, 1, 8, 0,22, 0.00,60.00,Sunday
213,183932088.60825998
5925,183932088.60826015
2,8, 1, 8, 0,23, 0.00,60.00,Sunday
213,160757960.6660325
5925,160757960.66603246
2,8, 1, 8, 0,24, 0.00,60.00,Sunday
213,120290746.19953136
5925,120290746.19953136
2,9, 1, 9, 0, 1, 0.00,60.00,Monday
213,94339276.52833833
5925,94339276.52833833
2,9, 1, 9, 0, 2, 0.00,60.00,Monday
213,89841620.71629696
5925,89841620.71629694
2,9, 1, 9, 0, 3, 0.00,60.00,Monday
213,89737559.94643664
5925,89737559.94643663
2,9, 1, 9, 0, 4, 0.00,60.00,Monday
213,84091024.76745619
5925,84091024.76745617
2,9, 1, 9, 0, 5, 0.00,60.00,Monday
213,90822618.97187622
5925,90822618.97187622
2,9, 1, 9, 0, 6, 0.00,60.00,Monday
213,123383720.28906949
5925,123383720.28906949
2,9, 1, 9, 0, 7, 0.00,60.00,Monday
213,189396175.91562808
5925,189396175.91562805
2,9, 1, 9, 0, 8, 0.00,60.00,Monday
213,190161573.3449099
5925,190161573.3449099
2,9, 1, 9, 0, 9, 0.00,60.00,Monday
213,179047720.4640102
5925,179047720.4640102
2,9, 1, 9, 0,10, 0.00,60.00,Monday
213,161101304.91999537
5925,161101304.9199954
2,9, 1, 9, 0,11, 0.00,60.00,Monday
213,145125338.5732601
5925,145125338.5732601
2,9, 1, 9, 0,12, 0.00,60.00,Monday
213,146318649.66058385
5925,146318649.66058385
2,9, 1, 9, 0,13, 0.00,60.00,Monday
213,158159138.34915265
5925,158159138.34915262
2,9, 1, 9, 0,14, 0.00,60.00,Monday
213,154071121.3428788
5925,154071121.3428788
2,9, 1, 9, 0,15, 0.00,60.00,Monday
213,152063335.18299744
5925,152063335.1829974
2,9, 1, 9, 0,16, 0.00,60.00,Monday
213,162790763.56992453
5925,162790763.5699245
2,9, 1, 9, 0,17, 0.00,60.00,Monday
213,176915637.60647714
5925,176915637.6064771
2,9, 1, 9, 0,18, 0.00,60.00,Monday
213,198647613.0659391
5925,198647613.06593937
2,9, 1, 9, 0,19, 0.00,60.00,Monday
213,220400982.2138438
5925,220400982.21384415
2,9, 1, 9, 0,20, 0.00,60.00,Monday
213,217394968.43279225
5925,217394968.4327926
2,9, 1, 9, 0,21, 0.00,60.00,Monday
213,210227123.12097362
5925,210227123.12097394
2,9, 1, 9, 0,22, 0.00,60.00,Monday
213,187282517.2166185
5925,187282517.21661872
2,9, 1, 9, 0,23, 0.00,60.00,Monday
213,158557057.47553512
5925,158557057.4755351
2,9, 1, 9, 0,24, 0.00,60.00,Monday
213,120672894.20446262
5925,120672894.20446259
2,10, 1,10, 0, 1, 0.00,60.00,Tuesday
213,95555152.14998272
5925,95555152.14998269
2,10, 1,10, 0, 2, 0.00,60.00,Tuesday
213,88900838.76996207
5925,88900838.76996207
2,10, 1,10, 0, 3, 0.00,60.00,Tuesday
213,88449887.54229344
5925,88449887.54229344
2,10, 1,10, 0, 4, 0.00,60.00,Tuesday
213,80945118.54285619
5925,80945118.54285619
2,10, 1,10, 0, 5, 0.00,60.00,Tuesday
213,96970639.94700538
5925,96970639.94700538
2,10, 1,10, 0, 6, 0.00,60.00,Tuesday
213,120585705.16116437
5925,120585705.16116439
2,10, 1,10, 0, 7, 0.00,60.00,Tuesday
213,191788799.84514698
5925,191788799.84514698
2,10, 1,10, 0, 8, 0.00,60.00,Tuesday
213,186021280.27888608
5925,186021280.27888608
2,10, 1,10, 0, 9, 0.00,60.00,Tuesday
213,180846135.60029957
5925,180846135.60029954
2,10, 1,10, 0,10, 0.00,60.00,Tuesday
213,157429966.62296224
5925,157429966.6229622
2,10, 1,10, 0,11, 0.00,60.00,Tuesday
213,151234400.5596168
5925,151234400.5596168
2,10, 1,10, 0,12, 0.00,60.00,Tuesday
213,145514464.84278953
5925,145514464.84278953
2,10, 1,10, 0,13, 0.00,60.00,Tuesday
213,161028484.8471498
5925,161028484.8471498
2,10, 1,10, 0,14, 0.00,60.00,Tuesday
213,151262150.12337977
5925,151262150.12337977
2,10, 1,10, 0,15, 0.00,60.00,Tuesday
213,157197001.24050215
5925,157197001.24050215
2,10, 1,10, 0,16, 0.00,60.00,Tuesday
213,158417545.85822695
5925,158417545.85822693
2,10, 1,10, 0,17, 0.00,60.00,Tuesday
213,170576672.1904214
5925,170576672.1904214
2,10, 1,10, 0,18, 0.00,60.00,Tuesday
213,201577389.11585033
5925,201577389.1158507
2,10, 1,10, 0,19, 0.00,60.00,Tuesday
213,220172142.43772724
5925,220172142.43772757
2,10, 1,10, 0,20, 0.00,60.00,Tuesday
213,220716079.69249985
5925,220716079.6925002
2,10, 1,10, 0,21, 0.00,60.00,Tuesday
213,205932959.99018452
5925,205932959.99018484
2,10, 1,10, 0,22, 0.00,60.00,Tuesday
213,184420454.18277645
5925,184420454.18277663
2,10, 1,10, 0,23, 0.00,60.00,Tuesday
213,154424380.9657272
5925,154424380.96572718
2,10, 1,10, 0,24, 0.00,60.00,Tuesday
213,122860552.48603953
5925,122860552.4860395
2,11, 1,11, 0, 1, 0.00,60.00,Wednesday
213,93732854.41157766
5925,93732854.41157764
2,11, 1,11, 0, 2, 0.00,60.00,Wednesday
213,82498931.49732289
5925,82498931.49732289
2,11, 1,11, 0, 3, 0.00,60.00,Wednesday
213,90721757.9605999
5925,90721757.96059988
2,11, 1,11, 0, 4, 0.00,60.00,Wednesday
213,78855471.76986887
5925,78855471.76986885
2,11, 1,11, 0, 5, 0.00,60.00,Wednesday
213,88990423.57109985
5925,88990423.57109983
2,11, 1,11, 0, 6, 0.00,60.00,Wednesday
213,119356013.35809326
5925,119356013.35809326
2,11, 1,11, 0, 7, 0.00,60.00,Wednesday
213,186791066.9954214
5925,186791066.99542132
2,11, 1,11, 0, 8, 0.00,60.00,Wednesday
213,184835383.35653257
5925,184835383.35653257
2,11, 1,11, 0, 9, 0.00,60.00,Wednesday
213,175820510.69360203
5925,175820510.69360203
2,11, 1,11, 0,10, 0.00,60.00,Wednesday
213,159967858.79080656
5925,159967858.79080656
2,11, 1,11, 0,11, 0.00,60.00,Wednesday
213,151541432.4307353
5925,151541432.43073526
2,11, 1,11, 0,12, 0.00,60.00,Wednesday
213,136776471.38069105
5925,136776471.38069105
2,11, 1,11, 0,13, 0.00,60.00,Wednesday
213,131089853.95360133
5925,131089853.95360135
2,11, 1,11, 0,14, 0.00,60.00,Wednesday
213,122697640.54593402
5925,122697640.54593402
2,11, 1,11, 0,15, 0.00,60.00,Wednesday
213,119469790.23696883
5925,119469790.23696882
2,11, 1,11, 0,16, 0.00,60.00,Wednesday
213,131246464.54366781
5925,131246464.54366778
2,11, 1,11, 0,17, 0.00,60.00,Wednesday
213,157289063.22736394
5925,157289063.22736394
2,11, 1,11, 0,18, 0.00,60.00,Wednesday
213,189923634.6691065
5925,189923634.66910684
2,11, 1,11, 0,19, 0.00,60.00,Wednesday
213,230761600.46955928
5925,230761600.46955955
2,11, 1,11, 0,20, 0.00,60.00,Wednesday
213,220621320.2547004
5925,220621320.25470075
2,11, 1,11, 0,21, 0.00,60.00,Wednesday
213,211709180.3487188
5925,211709180.3487191
2,11, 1,11, 0,22, 0.00,60.00,Wednesday
213,186700522.59371373
5925,186700522.5937139
2,11, 1,11, 0,23, 0.00,60.00,Wednesday
213,158580663.10714254
5925,158580663.10714254
2,11, 1,11, 0,24, 0.00,60.00,Wednesday
213,122376726.68107432
5925,122376726.6810743
2,12, 1,12, 0, 1, 0.00,60.00,Thursday
213,94328385.54964812
5925,94328385.54964809
2,12, 1,12, 0, 2, 0.00,60.00,Thursday
213,91062205.64142771
5925,91062205.64142771
2,12, 1,12, 0, 3, 0.00,60.00,Thursday
213,84691310.03306876
5925,84691310.03306878
2,12, 1,12, 0, 4, 0.00,60.00,Thursday
213,88475699.8154197
5925,88475699.8154197
2,12, 1,12, 0, 5, 0.00,60.00,Thursday
213,91536959.15914543
5925,91536959.15914541
2,12, 1,12, 0, 6, 0.00,60.00,Thursday
213,122051916.37659746
5925,122051916.37659745
2,12, 1,12, 0, 7, 0.00,60.00,Thursday
213,193194389.57084635
5925,193194389.57084632
2,12, 1,12, 0, 8, 0.00,60.00,Thursday
213,187890193.2048864
5925,187890193.20488638
2,12, 1,12, 0, 9, 0.00,60.00,Thursday
213,180852521.09948403
5925,180852521.09948403
2,12, 1,12, 0,10, 0.00,60.00,Thursday
213,165155326.12294513
5925,165155326.12294507
2,12, 1,12, 0,11, 0.00,60.00,Thursday
213,149344745.3325621
5925,149344745.33256206
2,12, 1,12, 0,12, 0.00,60.00,Thursday
213,138657962.71343917
5925,138657962.71343914
2,12, 1,12, 0,13, 0.00,60.00,Thursday
213,136719489.06571528
5925,136719489.06571525
2,12, 1,12, 0,14, 0.00,60.00,Thursday
213,121992408.39470206
5925,121992408.39470205
2,12, 1,12, 0,15, 0.00,60.00,Thursday
213,122117442.76831436
5925,122117442.76831436
2,12, 1,12, 0,16, 0.00,60.00,Thursday
213,134680093.8726086
5925,134680093.8726086
2,12, 1,12, 0,17, 0.00,60.00,Thursday
213,155127286.77692577
5925,155127286.7769258
2,12, 1,12, 0,18, 0.00,60.00,Thursday
213,199710773.0384833
5925,199710773.03848362
2,12, 1,12, 0,19, 0.00,60.00,Thursday
213,227018616.8574258
5925,227018616.85742614
2,12, 1,12, 0,20, 0.00,60.00,Thursday
213,219731130.72756445
5925,219731130.72756484
2,12, 1,12, 0,21, 0.00,60.00,Thursday
213,216204412.22166082
5925,216204412.2216612
2,12, 1,12, 0,22, 0.00,60.00,Thursday
213,189748978.19134593
5925,189748978.19134608
2,12, 1,12, 0,23, 0.00,60.00,Thursday
213,159017849.05760014
5925,159017849.05760014
2,12, 1,12, 0,24, 0.00,60.00,Thursday
213,124775462.83249229
5925,124775462.83249226
2,13, 1,13, 0, 1, 0.00,60.00,Friday
213,98379895.14811549
5925,98379895.14811547
2,13, 1,13, 0, 2, 0.00,60.00,Friday
213,88001163.23015575
5925,88001163.23015577
2,13, 1,13, 0, 3, 0.00,60.00,Friday
213,96080565.8796092
5925,96080565.8796092
2,13, 1,13, 0, 4, 0.00,60.00,Friday
213,83139479.59912874
5925,83139479.59912872
2,13, 1,13, 0, 5, 0.00,60.00,Friday
213,99646039.0647373
5925,99646039.0647373
2,13, 1,13, 0, 6, 0.00,60.00,Friday
213,122621262.27779967
5925,122621262.27779965
2,13, 1,13, 0, 7, 0.00,60.00,Friday
213,193475294.76249287
5925,193475294.76249284
2,13, 1,13, 0, 8, 0.00,60.00,Friday
213,188272373.8639655
5925,188272373.8639655
2,13, 1,13, 0, 9, 0.00,60.00,Friday
213,181581592.45441347
5925,181581592.45441344
2,13, 1,13, 0,10, 0.00,60.00,Friday
213,158039524.65601876
5925,158039524.65601876
2,13, 1,13, 0,11, 0.00,60.00,Friday
213,159651220.43135273
5925,159651220.43135276
2,13, 1,13, 0,12, 0.00,60.00,Friday
213,137907095.71427637
5925,137907095.71427634
2,13, 1,13, 0,13, 0.00,60.00,Friday
213,132710489.34473675
5925,132710489.34473674
2,13, 1,13, 0,14, 0.00,60.00,Friday
213,124805176.13841265
5925,124805176.13841262
2,13, 1,13, 0,15, 0.00,60.00,Friday
213,125291804.62265086
5925,125291804.62265086
2,13, 1,13, 0,16, 0.00,60.00,Friday
213,125405136.08345051
5925,125405136.08345051
2,13, 1,13, 0,17, 0.00,60.00,Friday
213,159494094.9363904
5925,159494094.93639043
2,13, 1,13, 0,18, 0.00,60.00,Friday
213,199965511.2163716
5925,199965511.21637192
2,13, 1,13, 0,19, 0.00,60.00,Friday
213,225193202.4536627
5925,225193202.45366302
2,13, 1,13, 0,20, 0.00,60.00,Friday
213,226608738.22675836
5925,226608738.22675866
2,13, 1,13, 0,21, 0.00,60.00,Friday
213,210684123.79236704
5925,210684123.7923674
2,13, 1,13, 0,22, 0.00,60.00,Friday
213,189417830.14394194
5925,189417830.14394212
2,13, 1,13, 0,23, 0.00,60.00,Friday
213,163404342.51515102
5925,163404342.51515102
2,13, 1,13, 0,24, 0.00,60.00,Friday
213,123064528.96119942
5925,123064528.96119942
2,14, 1,14, 0, 1, 0.00,60.00,Saturday
213,100385005.01531398
5925,100385005.01531397
2,14, 1,14, 0, 2, 0.00,60.00,Saturday
213,89241047.92987832
5925,89241047.92987835
2,14, 1,14, 0, 3, 0.00,60.00,Saturday
213,89335328.07372479
5925,89335328.0737248
2,14, 1,14, 0, 4, 0.00,60.00,Saturday
213,92113524.41890256
5925,92113524.41890256
2,14, 1,14, 0, 5, 0.00,60.00,Saturday
213,89776156.32930228
5925,89776156.32930228
2,14, 1,14, 0, 6, 0.00,60.00,Saturday
213,126451222.92310253
5925,126451222.9231025
2,14, 1,14, 0, 7, 0.00,60.00,Saturday
213,190034046.51487458
5925,190034046.51487458
2,14, 1,14, 0, 8, 0.00,60.00,Saturday
213,192076805.7125846
5925,192076805.71258464
2,14, 1,14, 0, 9, 0.00,60.00,Saturday
213,175863973.79337242
5925,175863973.79337242
2,14, 1,14, 0,10, 0.00,60.00,Saturday
213,165218422.47750875
5925,165218422.47750872
2,14, 1,14, 0,11, 0.00,60.00,Saturday
213,145735923.0345098
5925,145735923.03450978
2,14, 1,14, 0,12, 0.00,60.00,Saturday
213,138358365.78664434
5925,138358365.7866443
2,14, 1,14, 0,13, 0.00,60.00,Saturday
213,130494016.84827359
5925,130494016.84827358
2,14, 1,14, 0,14, 0.00,60.00,Saturday
213,125667239.85591584
5925,125667239.85591581
2,14, 1,14, 0,15, 0.00,60.00,Saturday
213,114537840.85134374
5925,114537840.8513437
2,14, 1,14, 0,16, 0.00,60.00,Saturday
213,134475309.2034058
5925,134475309.2034058
2,14, 1,14, 0,17, 0.00,60.00,Saturday
213,155635527.96671617
5925,155635527.96671614
2,14, 1,14, 0,18, 0.00,60.00,Saturday
213,195637709.26596692
5925,195637709.26596728
2,14, 1,14, 0,19, 0.00,60.00,Saturday
213,234241773.19745576
5925,234241773.1974561
2,14, 1,14, 0,20, 0.00,60.00,Saturday
213,218958812.6106718
5925,218958812.61067218
2,14, 1,14, 0,21, 0.00,60.00,Saturday
213,219476619.20231935
5925,219476619.20231968
2,14, 1,14, 0,22, 0.00,60.00,Saturday
213,189431282.3510322
5925,189431282.3510324
2,14, 1,14, 0,23, 0.00,60.00,Saturday
213,159596220.85107523
5925,159596220.85107523
2,14, 1,14, 0,24, 0.00,60.00,Saturday
213,124548483.15479228
5925,124548483.15479225
2,15, 1,15, 0, 1, 0.00,60.00,Sunday
213,94260622.96334778
5925,94260622.96334776
2,15, 1,15, 0, 2, 0.00,60.00,Sunday
213,94643431.6096617
5925,94643431.60966171
2,15, 1,15, 0, 3, 0.00,60.00,Sunday
213,86230377.63397592
5925,86230377.63397592
2,15, 1,15, 0, 4, 0.00,60.00,Sunday
213,88449712.09438443
5925,88449712.09438442
2,15, 1,15, 0, 5, 0.00,60.00,Sunday
213,97374240.21029729
5925,97374240.21029729
2,15, 1,15, 0, 6, 0.00,60.00,Sunday
213,123913210.37181188
5925,123913210.37181187
2,15, 1,15, 0, 7, 0.00,60.00,Sunday
213,189495294.57239163
5925,189495294.5723916
2,15, 1,15, 0, 8, 0.00,60.00,Sunday
213,190964162.8260055
5925,190964162.8260055
2,15, 1,15, 0, 9, 0.00,60.00,Sunday
213,178018581.52411196
5925,178018581.524112
2,15, 1,15, 0,10, 0.00,60.00,Sunday
213,161614032.13328958
5925,161614032.13328958
2,15, 1,15, 0,11, 0.00,60.00,Sunday
213,147775158.93196815
5925,147775158.93196815
2,15, 1,15, 0,12, 0.00,60.00,Sunday
213,139107939.62259334
5925,139107939.62259334
2,15, 1,15, 0,13, 0.00,60.00,Sunday
213,133082131.51912704
5925,133082131.51912706
2,15, 1,15, 0,14, 0.00,60.00,Sunday
213,120874365.95185882
5925,120874365.9518588
2,15, 1,15, 0,15, 0.00,60.00,Sunday
213,120187047.16131262
5925,120187047.16131261
2,15, 1,15, 0,16, 0.00,60.00,Sunday
213,128894106.54893461
5925,128894106.54893461
2,15, 1,15, 0,17, 0.00,60.00,Sunday
213,153444379.4701922
5925,153444379.4701922
2,15, 1,15, 0,18, 0.00,60.00,Sunday
213,201141576.07575798