Program Version,EnergyPlus, Version 26.1.0-6f2e40d102, YMD=2026.04.14 19:58
1,5,Environment Title[],Latitude[deg],Longitude[deg],Time Zone[],Elevation[m]
2,8,Day of Simulation[],Month[],Day of Month[],DST Indicator[1=yes 0=no],Hour[],StartMinute[],EndMinute[],DayType
3,5,Cumulative Day of Simulation[],Month[],Day of Month[],DST Indicator[1=yes 0=no],DayType  ! When Daily Meters Requested
4,2,Cumulative Days of Simulation[],Month[]  ! When Monthly Meters Requested
5,1,Cumulative Days of Simulation[] ! When Run Period Meters Requested
6,1,Calendar Year of Simulation[] ! When Annual Meters Requested
213,1,Electricity:Facility [J] !Hourly
5925,1,ElectricityNet:Facility [J] !Hourly
End of Data Dictionary
1,RUNPERIOD 1,  28.11, 112.79,   8.00, 120.00
2,1, 1, 1, 0, 1, 0.00,60.00,Sunday
213,90053241.10037719
5925,90053241.10037717
2,1, 1, 1, 0, 2, 0.00,60.00,Sunday
213,93942186.54947835
5925,93942186.54947837
2,1, 1, 1, 0, 3, 0.00,60.00,Sunday
213,98863072.47293454
5925,98863072.47293454
2,1, 1, 1, 0, 4, 0.00,60.00,Sunday
213,92206883.84378374
5925,92206883.84378374
2,1, 1, 1, 0, 5, 0.00,60.00,Sunday
213,102172309.17195202
5925,102172309.17195202
2,1, 1, 1, 0, 6, 0.00,60.00,Sunday
213,128845444.36193062
5925,128845444.36193058
2,1, 1, 1, 0, 7, 0.00,60.00,Sunday
213,194128906.325142
5925,194128906.325142
2,1, 1, 1, 0, 8, 0.00,60.00,Sunday
213,198051408.375835
5925,198051408.375835
2,1, 1, 1, 0, 9, 0.00,60.00,Sunday
213,177966115.36290863
5925,177966115.3629086
2,1, 1, 1, 0,10, 0.00,60.00,Sunday
213,158295003.82518357
5925,158295003.82518357
2,1, 1, 1, 0,11, 0.00,60.00,Sunday
213,159215243.98980606
5925,159215243.98980603
2,1, 1, 1, 0,12, 0.00,60.00,Sunday
213,140917562.11683068
5925,140917562.11683065
2,1, 1, 1, 0,13, 0.00,60.00,Sunday
213,129967275.64941156
5925,129967275.64941151
2,1, 1, 1, 0,14, 0.00,60.00,Sunday
213,135418108.00608674
5925,135418108.00608674
2,1, 1, 1, 0,15, 0.00,60.00,Sunday
213,114732889.23981443
5925,114732889.23981442
2,1, 1, 1, 0,16, 0.00,60.00,Sunday
213,140619702.83752975
5925,140619702.83752972
2,1, 1, 1, 0,17, 0.00,60.00,Sunday
213,160543156.74528956
5925,160543156.74528965
2,1, 1, 1, 0,18, 0.00,60.00,Sunday
213,201149762.9617446
5925,201149762.9617449
2,1, 1, 1, 0,19, 0.00,60.00,Sunday
213,239110135.77115205
5925,239110135.77115238
2,1, 1, 1, 0,20, 0.00,60.00,Sunday
213,222674944.72815448
5925,222674944.7281548
2,1, 1, 1, 0,21, 0.00,60.00,Sunday
213,225777769.69959322
5925,225777769.69959354
2,1, 1, 1, 0,22, 0.00,60.00,Sunday
213,196599307.0199883
5925,196599307.01998848
2,1, 1, 1, 0,23, 0.00,60.00,Sunday
213,167501892.08495986
5925,167501892.0849599
2,1, 1, 1, 0,24, 0.00,60.00,Sunday
213,129319605.89399235
5925,129319605.89399236
2,2, 1, 2, 0, 1, 0.00,60.00,Holiday
213,97646576.63913223
5925,97646576.6391322
2,2, 1, 2, 0, 2, 0.00,60.00,Holiday
213,100870197.90320277
5925,100870197.90320276
2,2, 1, 2, 0, 3, 0.00,60.00,Holiday
213,92698085.9188751
5925,92698085.91887508
2,2, 1, 2, 0, 4, 0.00,60.00,Holiday
213,86672004.16359496
5925,86672004.16359498
2,2, 1, 2, 0, 5, 0.00,60.00,Holiday
213,102882630.9804168
5925,102882630.9804168
2,2, 1, 2, 0, 6, 0.00,60.00,Holiday
213,129566025.78096172
5925,129566025.7809617
2,2, 1, 2, 0, 7, 0.00,60.00,Holiday
213,195367597.94717804
5925,195367597.94717807
2,2, 1, 2, 0, 8, 0.00,60.00,Holiday
213,199504444.25512993
5925,199504444.25513
2,2, 1, 2, 0, 9, 0.00,60.00,Holiday
213,179095157.0264132
5925,179095157.0264132
2,2, 1, 2, 0,10, 0.00,60.00,Holiday
213,159351006.10408452
5925,159351006.1040845
2,2, 1, 2, 0,11, 0.00,60.00,Holiday
213,160471016.3931397
5925,160471016.3931397
2,2, 1, 2, 0,12, 0.00,60.00,Holiday
213,146948567.37850714
5925,146948567.37850717
2,2, 1, 2, 0,13, 0.00,60.00,Holiday
213,138677318.93125027
5925,138677318.93125027
2,2, 1, 2, 0,14, 0.00,60.00,Holiday
213,123239540.68918082
5925,123239540.68918085
2,2, 1, 2, 0,15, 0.00,60.00,Holiday
213,128200269.52110325
5925,128200269.52110325
2,2, 1, 2, 0,16, 0.00,60.00,Holiday
213,126934680.87513931
5925,126934680.87513934
2,2, 1, 2, 0,17, 0.00,60.00,Holiday
213,168085967.55396724
5925,168085967.5539674
2,2, 1, 2, 0,18, 0.00,60.00,Holiday
213,198246179.9262107
5925,198246179.926211
2,2, 1, 2, 0,19, 0.00,60.00,Holiday
213,239902420.45476216
5925,239902420.45476252
2,2, 1, 2, 0,20, 0.00,60.00,Holiday
213,229885189.53300104
5925,229885189.53300136
2,2, 1, 2, 0,21, 0.00,60.00,Holiday
213,216461314.58044526
5925,216461314.58044556
2,2, 1, 2, 0,22, 0.00,60.00,Holiday
213,194006342.17727056
5925,194006342.17727077
2,2, 1, 2, 0,23, 0.00,60.00,Holiday
213,168219190.6142788
5925,168219190.61427882
2,2, 1, 2, 0,24, 0.00,60.00,Holiday
213,130061741.12826268
5925,130061741.12826271
2,3, 1, 3, 0, 1, 0.00,60.00,Tuesday
213,111507614.72547579
5925,111507614.72547577
2,3, 1, 3, 0, 2, 0.00,60.00,Tuesday
213,95605677.21163954
5925,95605677.21163955
2,3, 1, 3, 0, 3, 0.00,60.00,Tuesday
213,87358512.93250383
5925,87358512.93250383
2,3, 1, 3, 0, 4, 0.00,60.00,Tuesday
213,99831903.44765094
5925,99831903.44765094
2,3, 1, 3, 0, 5, 0.00,60.00,Tuesday
213,97661466.30205329
5925,97661466.30205329
2,3, 1, 3, 0, 6, 0.00,60.00,Tuesday
213,130767146.9152915
5925,130767146.91529149
2,3, 1, 3, 0, 7, 0.00,60.00,Tuesday
213,196255885.57889333
5925,196255885.57889333
2,3, 1, 3, 0, 8, 0.00,60.00,Tuesday
213,192865012.9374922
5925,192865012.9374922
2,3, 1, 3, 0, 9, 0.00,60.00,Tuesday
213,191698829.06132734
5925,191698829.0613273
2,3, 1, 3, 0,10, 0.00,60.00,Tuesday
213,170127936.28519386
5925,170127936.28519392
2,3, 1, 3, 0,11, 0.00,60.00,Tuesday
213,159378031.89240652
5925,159378031.8924065
2,3, 1, 3, 0,12, 0.00,60.00,Tuesday
213,144537801.57544988
5925,144537801.5754499
2,3, 1, 3, 0,13, 0.00,60.00,Tuesday
213,142968284.8805937
5925,142968284.8805937
2,3, 1, 3, 0,14, 0.00,60.00,Tuesday
213,128030514.16468585
5925,128030514.16468585
2,3, 1, 3, 0,15, 0.00,60.00,Tuesday
213,140674682.77731737
5925,140674682.77731737
2,3, 1, 3, 0,16, 0.00,60.00,Tuesday
213,145748068.87297726
5925,145748068.87297726
2,3, 1, 3, 0,17, 0.00,60.00,Tuesday
213,152878261.5491695
5925,152878261.5491697
2,3, 1, 3, 0,18, 0.00,60.00,Tuesday
213,213509688.48119313
5925,213509688.48119345
2,3, 1, 3, 0,19, 0.00,60.00,Tuesday
213,227162642.34901166
5925,227162642.349012
2,3, 1, 3, 0,20, 0.00,60.00,Tuesday
213,237975131.43808582
5925,237975131.4380862
2,3, 1, 3, 0,21, 0.00,60.00,Tuesday
213,213697734.08200067
5925,213697734.08200097
2,3, 1, 3, 0,22, 0.00,60.00,Tuesday
213,197736354.86346424
5925,197736354.86346442
2,3, 1, 3, 0,23, 0.00,60.00,Tuesday
213,168545489.36117908
5925,168545489.36117905
2,3, 1, 3, 0,24, 0.00,60.00,Tuesday
213,130002226.55579358
5925,130002226.55579358
2,4, 1, 4, 0, 1, 0.00,60.00,Wednesday
213,104424513.80850627
5925,104424513.80850627
2,4, 1, 4, 0, 2, 0.00,60.00,Wednesday
213,95805356.7534127
5925,95805356.75341271
2,4, 1, 4, 0, 3, 0.00,60.00,Wednesday
213,100953418.74055044
5925,100953418.74055044
2,4, 1, 4, 0, 4, 0.00,60.00,Wednesday
213,94248485.9353461
5925,94248485.9353461
2,4, 1, 4, 0, 5, 0.00,60.00,Wednesday
213,90932183.2763961
5925,90932183.27639608
2,4, 1, 4, 0, 6, 0.00,60.00,Wednesday
213,130991084.89832662
5925,130991084.89832659
2,4, 1, 4, 0, 7, 0.00,60.00,Wednesday
213,196337213.05030426
5925,196337213.05030423
2,4, 1, 4, 0, 8, 0.00,60.00,Wednesday
213,200746787.66313034
5925,200746787.66313034
2,4, 1, 4, 0, 9, 0.00,60.00,Wednesday
213,184466350.69012243
5925,184466350.69012243
2,4, 1, 4, 0,10, 0.00,60.00,Wednesday
213,177986838.12117326
5925,177986838.12117326
2,4, 1, 4, 0,11, 0.00,60.00,Wednesday
213,151348469.2963618
5925,151348469.2963618
2,4, 1, 4, 0,12, 0.00,60.00,Wednesday
213,150066480.52665627
5925,150066480.52665624
2,4, 1, 4, 0,13, 0.00,60.00,Wednesday
213,140463895.12697673
5925,140463895.12697673
2,4, 1, 4, 0,14, 0.00,60.00,Wednesday
213,138787704.78680614
5925,138787704.7868061
2,4, 1, 4, 0,15, 0.00,60.00,Wednesday
213,118209417.32246388
5925,118209417.32246387
2,4, 1, 4, 0,16, 0.00,60.00,Wednesday
213,143846783.0884323
5925,143846783.0884323
2,4, 1, 4, 0,17, 0.00,60.00,Wednesday
213,171342497.5455997
5925,171342497.54559988
2,4, 1, 4, 0,18, 0.00,60.00,Wednesday
213,198151830.01458675
5925,198151830.01458704
2,4, 1, 4, 0,19, 0.00,60.00,Wednesday
213,239009832.16811693
5925,239009832.16811725
2,4, 1, 4, 0,20, 0.00,60.00,Wednesday
213,214794217.75845233
5925,214794217.75845265
2,4, 1, 4, 0,21, 0.00,60.00,Wednesday
213,231614931.13833952
5925,231614931.13833982
2,4, 1, 4, 0,22, 0.00,60.00,Wednesday
213,190700904.4839822
5925,190700904.48398238
2,4, 1, 4, 0,23, 0.00,60.00,Wednesday
213,153760178.6483969
5925,153760178.6483969
2,4, 1, 4, 0,24, 0.00,60.00,Wednesday
213,142159360.51808482
5925,142159360.51808482
2,5, 1, 5, 0, 1, 0.00,60.00,Thursday
213,97320490.57890746
5925,97320490.57890745
2,5, 1, 5, 0, 2, 0.00,60.00,Thursday
213,107554291.44860545
5925,107554291.44860546
2,5, 1, 5, 0, 3, 0.00,60.00,Thursday
213,86205536.29734522
5925,86205536.29734522
2,5, 1, 5, 0, 4, 0.00,60.00,Thursday
213,85498653.07083105
5925,85498653.07083105
2,5, 1, 5, 0, 5, 0.00,60.00,Thursday
213,109221992.09090355
5925,109221992.09090355
2,5, 1, 5, 0, 6, 0.00,60.00,Thursday
213,129331108.65762395
5925,129331108.65762393
2,5, 1, 5, 0, 7, 0.00,60.00,Thursday
213,195408152.61512223
5925,195408152.61512223
2,5, 1, 5, 0, 8, 0.00,60.00,Thursday
213,192319691.72602636
5925,192319691.72602636
2,5, 1, 5, 0, 9, 0.00,60.00,Thursday
213,190473429.66690427
5925,190473429.66690424
2,5, 1, 5, 0,10, 0.00,60.00,Thursday
213,154009829.0450669
5925,154009829.0450669
2,5, 1, 5, 0,11, 0.00,60.00,Thursday
213,169049434.8629766
5925,169049434.86297667
2,5, 1, 5, 0,12, 0.00,60.00,Thursday
213,139783149.83508757
5925,139783149.83508754
2,5, 1, 5, 0,13, 0.00,60.00,Thursday
213,131764137.43275267
5925,131764137.43275267
2,5, 1, 5, 0,14, 0.00,60.00,Thursday
213,128361311.75875163
5925,128361311.75875165
2,5, 1, 5, 0,15, 0.00,60.00,Thursday
213,134132415.1514101
5925,134132415.15141009
2,5, 1, 5, 0,16, 0.00,60.00,Thursday
213,125567977.06516516
5925,125567977.06516515
2,5, 1, 5, 0,17, 0.00,60.00,Thursday
213,159941494.29525703
5925,159941494.29525718
2,5, 1, 5, 0,18, 0.00,60.00,Thursday
213,195128418.66541815
5925,195128418.66541845
2,5, 1, 5, 0,19, 0.00,60.00,Thursday
213,236863070.67873812
5925,236863070.67873847
2,5, 1, 5, 0,20, 0.00,60.00,Thursday
213,234302033.44735372
5925,234302033.4473541
2,5, 1, 5, 0,21, 0.00,60.00,Thursday
213,210452121.0458002
5925,210452121.0458005
2,5, 1, 5, 0,22, 0.00,60.00,Thursday
213,194798125.4267667
5925,194798125.42676684
2,5, 1, 5, 0,23, 0.00,60.00,Thursday
213,165617323.35771778
5925,165617323.3577178
2,5, 1, 5, 0,24, 0.00,60.00,Thursday
213,126930369.16289546
5925,126930369.16289544
2,6, 1, 6, 0, 1, 0.00,60.00,Friday
213,101896169.00843772
5925,101896169.0084377
2,6, 1, 6, 0, 2, 0.00,60.00,Friday
213,92241323.79350689
5925,92241323.79350689
2,6, 1, 6, 0, 3, 0.00,60.00,Friday
213,91708829.83113551
5925,91708829.83113551
2,6, 1, 6, 0, 4, 0.00,60.00,Friday
213,97270512.5198893
5925,97270512.5198893
2,6, 1, 6, 0, 5, 0.00,60.00,Friday
213,94138270.47556677
5925,94138270.47556677
2,6, 1, 6, 0, 6, 0.00,60.00,Friday
213,121562332.45579937
5925,121562332.45579939
2,6, 1, 6, 0, 7, 0.00,60.00,Friday
213,199148818.80065736
5925,199148818.80065736
2,6, 1, 6, 0, 8, 0.00,60.00,Friday
213,192020136.70231262
5925,192020136.70231265
2,6, 1, 6, 0, 9, 0.00,60.00,Friday
213,180329786.68937936
5925,180329786.68937936
2,6, 1, 6, 0,10, 0.00,60.00,Friday
213,172079347.18759918
5925,172079347.1875992
2,6, 1, 6, 0,11, 0.00,60.00,Friday
213,144002691.9458607
5925,144002691.94586068
2,6, 1, 6, 0,12, 0.00,60.00,Friday
213,142290250.46926996
5925,142290250.46926996
2,6, 1, 6, 0,13, 0.00,60.00,Friday
213,132415280.58541662
5925,132415280.58541662
2,6, 1, 6, 0,14, 0.00,60.00,Friday
213,116683717.80048332
5925,116683717.80048329
2,6, 1, 6, 0,15, 0.00,60.00,Friday
213,128659597.0271347
5925,128659597.02713467
2,6, 1, 6, 0,16, 0.00,60.00,Friday
213,133716852.3559937
5925,133716852.35599366
2,6, 1, 6, 0,17, 0.00,60.00,Friday
213,141724226.29894903
5925,141724226.298949
2,6, 1, 6, 0,18, 0.00,60.00,Friday
213,204736923.8721332
5925,204736923.8721335
2,6, 1, 6, 0,19, 0.00,60.00,Friday
213,220629063.8181515
5925,220629063.8181518
2,6, 1, 6, 0,20, 0.00,60.00,Friday
213,232074859.92082256
5925,232074859.92082283
2,6, 1, 6, 0,21, 0.00,60.00,Friday
213,208338560.68952617
5925,208338560.6895265
2,6, 1, 6, 0,22, 0.00,60.00,Friday
213,186054496.4672618
5925,186054496.46726197
2,6, 1, 6, 0,23, 0.00,60.00,Friday
213,172461704.57946342
5925,172461704.57946333
2,6, 1, 6, 0,24, 0.00,60.00,Friday
213,127371263.93446982
5925,127371263.93446982
2,7, 1, 7, 0, 1, 0.00,60.00,Saturday
213,102878546.69855325
5925,102878546.69855323
2,7, 1, 7, 0, 2, 0.00,60.00,Saturday
213,95149015.0570246
5925,95149015.0570246
2,7, 1, 7, 0, 3, 0.00,60.00,Saturday
213,100298148.2022947
5925,100298148.2022947
2,7, 1, 7, 0, 4, 0.00,60.00,Saturday
213,93686133.74885161
5925,93686133.74885161
2,7, 1, 7, 0, 5, 0.00,60.00,Saturday
213,90726226.42221151
5925,90726226.42221151
2,7, 1, 7, 0, 6, 0.00,60.00,Saturday
213,144100353.42393643
5925,144100353.42393643
2,7, 1, 7, 0, 7, 0.00,60.00,Saturday
213,182866977.40518394
5925,182866977.40518397
2,7, 1, 7, 0, 8, 0.00,60.00,Saturday
213,206280536.69391072
5925,206280536.6939107
2,7, 1, 7, 0, 9, 0.00,60.00,Saturday
213,173185530.40036702
5925,173185530.40036705
2,7, 1, 7, 0,10, 0.00,60.00,Saturday
213,171115746.02067924
5925,171115746.0206792
2,7, 1, 7, 0,11, 0.00,60.00,Saturday
213,145544720.2691661
5925,145544720.2691661
2,7, 1, 7, 0,12, 0.00,60.00,Saturday
213,145088080.03928202
5925,145088080.03928205
2,7, 1, 7, 0,13, 0.00,60.00,Saturday
213,124912729.23915921
5925,124912729.2391592
2,7, 1, 7, 0,14, 0.00,60.00,Saturday
213,128868678.94340962
5925,128868678.94340959
2,7, 1, 7, 0,15, 0.00,60.00,Saturday
213,106740582.60979661
5925,106740582.6097966
2,7, 1, 7, 0,16, 0.00,60.00,Saturday
213,132373417.25421448
5925,132373417.25421448
2,7, 1, 7, 0,17, 0.00,60.00,Saturday
213,161237828.12891984
5925,161237828.12891984
2,7, 1, 7, 0,18, 0.00,60.00,Saturday
213,193212881.0197538
5925,193212881.0197541
2,7, 1, 7, 0,19, 0.00,60.00,Saturday
213,235530444.9203717
5925,235530444.920372
2,7, 1, 7, 0,20, 0.00,60.00,Saturday
213,213040508.674714
5925,213040508.6747143
2,7, 1, 7, 0,21, 0.00,60.00,Saturday
213,229699604.56743342
5925,229699604.56743377
2,7, 1, 7, 0,22, 0.00,60.00,Saturday
213,186938354.5087124
5925,186938354.5087126
2,7, 1, 7, 0,23, 0.00,60.00,Saturday
213,165690499.33878735
5925,165690499.33878735
2,7, 1, 7, 0,24, 0.00,60.00,Saturday
213,127567489.17189689
5925,127567489.17189687
2,8, 1, 8, 0, 1, 0.00,60.00,Sunday
213,96281523.5061004
5925,96281523.5061004
2,8, 1, 8, 0, 2, 0.00,60.00,Sunday
213,107336584.94397739
5925,107336584.94397739
2,8, 1, 8, 0, 3, 0.00,60.00,Sunday
213,86563689.74968566
5925,86563689.74968567
2,8, 1, 8, 0, 4, 0.00,60.00,Sunday
213,86252031.40781918
5925,86252031.40781918
2,8, 1, 8, 0, 5, 0.00,60.00,Sunday
213,110339832.43199939
5925,110339832.43199939
2,8, 1, 8, 0, 6, 0.00,60.00,Sunday
213,130163594.6858437
5925,130163594.68584369
2,8, 1, 8, 0, 7, 0.00,60.00,Sunday
213,195991915.43813717
5925,195991915.43813717
2,8, 1, 8, 0, 8, 0.00,60.00,Sunday
213,197466741.5487886
5925,197466741.54878855
2,8, 1, 8, 0, 9, 0.00,60.00,Sunday
213,181543358.19802263
5925,181543358.1980226
2,8, 1, 8, 0,10, 0.00,60.00,Sunday
213,167782916.4500492
5925,167782916.4500492
2,8, 1, 8, 0,11, 0.00,60.00,Sunday
213,143545358.88456848
5925,143545358.88456848
2,8, 1, 8, 0,12, 0.00,60.00,Sunday
213,138314577.7222995
5925,138314577.72229952
2,8, 1, 8, 0,13, 0.00,60.00,Sunday
213,128959115.02479866
5925,128959115.02479863
2,8, 1, 8, 0,14, 0.00,60.00,Sunday
213,112678553.36888689
5925,112678553.36888689
2,8, 1, 8, 0,15, 0.00,60.00,Sunday
213,117502052.31896259
5925,117502052.31896259
2,8, 1, 8, 0,16, 0.00,60.00,Sunday
213,119690496.0708247
5925,119690496.07082473
2,8, 1, 8, 0,17, 0.00,60.00,Sunday
213,148247444.49366546
5925,148247444.49366543
2,8, 1, 8, 0,18, 0.00,60.00,Sunday
213,211845219.72594994
5925,211845219.72595024
2,8, 1, 8, 0,19, 0.00,60.00,Sunday
213,212315404.80862716
5925,212315404.8086275
2,8, 1, 8, 0,20, 0.00,60.00,Sunday
213,231396856.87075815
5925,231396856.8707585
2,8, 1, 8, 0,21, 0.00,60.00,Sunday
213,208125337.6964884
5925,208125337.6964887
2,8, 1, 8, 0,22, 0.00,60.00,Sunday
213,193132947.08621818
5925,193132947.0862184
2,8, 1, 8, 0,23, 0.00,60.00,Sunday
213,164578493.24189243
5925,164578493.24189243
2,8, 1, 8, 0,24, 0.00,60.00,Sunday
213,126586862.83740069
5925,126586862.83740067
2,9, 1, 9, 0, 1, 0.00,60.00,Monday
213,108619111.48337
5925,108619111.48337
2,9, 1, 9, 0, 2, 0.00,60.00,Monday
213,87140997.94002116
5925,87140997.94002116
2,9, 1, 9, 0, 3, 0.00,60.00,Monday
213,106385491.07561028
5925,106385491.07561031
2,9, 1, 9, 0, 4, 0.00,60.00,Monday
213,85672971.70865668
5925,85672971.70865668
2,9, 1, 9, 0, 5, 0.00,60.00,Monday
213,97288365.11564682
5925,97288365.11564681
2,9, 1, 9, 0, 6, 0.00,60.00,Monday
213,130622458.59467468
5925,130622458.59467468
2,9, 1, 9, 0, 7, 0.00,60.00,Monday
213,196799288.3789507
5925,196799288.3789507
2,9, 1, 9, 0, 8, 0.00,60.00,Monday
213,193944728.5863509
5925,193944728.58635086
2,9, 1, 9, 0, 9, 0.00,60.00,Monday
213,191138479.173543
5925,191138479.173543
2,9, 1, 9, 0,10, 0.00,60.00,Monday
213,167126151.08897153
5925,167126151.08897153
2,9, 1, 9, 0,11, 0.00,60.00,Monday
213,152998067.3063401
5925,152998067.3063401
2,9, 1, 9, 0,12, 0.00,60.00,Monday
213,134097426.24753745
5925,134097426.24753742
2,9, 1, 9, 0,13, 0.00,60.00,Monday
213,138145065.79816133
5925,138145065.79816133
2,9, 1, 9, 0,14, 0.00,60.00,Monday
213,126220342.8441611
5925,126220342.8441611
2,9, 1, 9, 0,15, 0.00,60.00,Monday
213,109062712.36697006
5925,109062712.36697005
2,9, 1, 9, 0,16, 0.00,60.00,Monday
213,132349508.54271004
5925,132349508.54271
2,9, 1, 9, 0,17, 0.00,60.00,Monday
213,153228826.76530838
5925,153228826.76530835
2,9, 1, 9, 0,18, 0.00,60.00,Monday
213,190853893.34520024
5925,190853893.3452006
2,9, 1, 9, 0,19, 0.00,60.00,Monday
213,229828225.58157483
5925,229828225.58157516
2,9, 1, 9, 0,20, 0.00,60.00,Monday
213,217207713.5761021
5925,217207713.57610247
2,9, 1, 9, 0,21, 0.00,60.00,Monday
213,221124982.52260464
5925,221124982.52260494
2,9, 1, 9, 0,22, 0.00,60.00,Monday
213,192486486.46620604
5925,192486486.4662062
2,9, 1, 9, 0,23, 0.00,60.00,Monday
213,163670735.94952846
5925,163670735.94952846
2,9, 1, 9, 0,24, 0.00,60.00,Monday
213,127061631.91599554
5925,127061631.91599552
2,10, 1,10, 0, 1, 0.00,60.00,Tuesday
213,96632343.82205854
5925,96632343.82205853
2,10, 1,10, 0, 2, 0.00,60.00,Tuesday
213,100384272.01459429
5925,100384272.0145943
2,10, 1,10, 0, 3, 0.00,60.00,Tuesday
213,93202835.12227681
5925,93202835.1222768
2,10, 1,10, 0, 4, 0.00,60.00,Tuesday
213,85848026.80752969
5925,85848026.80752969
2,10, 1,10, 0, 5, 0.00,60.00,Tuesday
213,110037527.74072774
5925,110037527.74072775
2,10, 1,10, 0, 6, 0.00,60.00,Tuesday
213,128332100.58017397
5925,128332100.58017395
2,10, 1,10, 0, 7, 0.00,60.00,Tuesday
213,198400281.08547422
5925,198400281.0854742
2,10, 1,10, 0, 8, 0.00,60.00,Tuesday
213,193563576.31420034
5925,193563576.31420037
2,10, 1,10, 0, 9, 0.00,60.00,Tuesday
213,190841077.94466856
5925,190841077.94466856
2,10, 1,10, 0,10, 0.00,60.00,Tuesday
213,161993993.53726357
5925,161993993.53726354
2,10, 1,10, 0,11, 0.00,60.00,Tuesday
213,158117334.10081476
5925,158117334.10081476
2,10, 1,10, 0,12, 0.00,60.00,Tuesday
213,133340834.8983771
5925,133340834.8983771
2,10, 1,10, 0,13, 0.00,60.00,Tuesday
213,136098669.16784346
5925,136098669.16784346
2,10, 1,10, 0,14, 0.00,60.00,Tuesday
213,109615132.63907167
5925,109615132.63907163
2,10, 1,10, 0,15, 0.00,60.00,Tuesday
213,126872580.23372233
5925,126872580.23372233
2,10, 1,10, 0,16, 0.00,60.00,Tuesday
213,123919668.4544647
5925,123919668.45446467
2,10, 1,10, 0,17, 0.00,60.00,Tuesday
213,146813531.80343822
5925,146813531.8034382
2,10, 1,10, 0,18, 0.00,60.00,Tuesday
213,199607590.20829242
5925,199607590.20829275
2,10, 1,10, 0,19, 0.00,60.00,Tuesday
213,216002286.647226
5925,216002286.6472263
2,10, 1,10, 0,20, 0.00,60.00,Tuesday
213,227466243.7397365
5925,227466243.73973686
2,10, 1,10, 0,21, 0.00,60.00,Tuesday
213,205051380.09848893
5925,205051380.09848925
2,10, 1,10, 0,22, 0.00,60.00,Tuesday
213,190213019.92232066
5925,190213019.9223208
2,10, 1,10, 0,23, 0.00,60.00,Tuesday
213,161239360.12228885
5925,161239360.12228882
2,10, 1,10, 0,24, 0.00,60.00,Tuesday
213,122704296.42238632
5925,122704296.4223863
2,11, 1,11, 0, 1, 0.00,60.00,Wednesday
213,104316868.12837991
5925,104316868.12837988
2,11, 1,11, 0, 2, 0.00,60.00,Wednesday
213,81939169.2138205
5925,81939169.2138205
2,11, 1,11, 0, 3, 0.00,60.00,Wednesday
213,99783072.92441277
5925,99783072.92441277
2,11, 1,11, 0, 4, 0.00,60.00,Wednesday
213,82104507.66603565
5925,82104507.66603562
2,11, 1,11, 0, 5, 0.00,60.00,Wednesday
213,91423319.54616307
5925,91423319.54616307
2,11, 1,11, 0, 6, 0.00,60.00,Wednesday
213,130166667.92191765
5925,130166667.92191765
2,11, 1,11, 0, 7, 0.00,60.00,Wednesday
213,184713868.68040362
5925,184713868.68040362
2,11, 1,11, 0, 8, 0.00,60.00,Wednesday
213,190333712.89102373
5925,190333712.89102373
2,11, 1,11, 0, 9, 0.00,60.00,Wednesday
213,179089346.94505233
5925,179089346.94505233
2,11, 1,11, 0,10, 0.00,60.00,Wednesday
213,167647198.35576826
5925,167647198.35576823
2,11, 1,11, 0,11, 0.00,60.00,Wednesday
213,158445710.3605887
5925,158445710.36058867
2,11, 1,11, 0,12, 0.00,60.00,Wednesday
213,141685222.44031054
5925,141685222.44031054
2,11, 1,11, 0,13, 0.00,60.00,Wednesday
213,131989231.08500548
5925,131989231.08500549
2,11, 1,11, 0,14, 0.00,60.00,Wednesday
213,131254888.86000691
5925,131254888.86000691
2,11, 1,11, 0,15, 0.00,60.00,Wednesday
213,122121050.2256847
5925,122121050.2256847
2,11, 1,11, 0,16, 0.00,60.00,Wednesday
213,141161597.49102646
5925,141161597.49102643
2,11, 1,11, 0,17, 0.00,60.00,Wednesday
213,161721907.8259511
5925,161721907.82595128
2,11, 1,11, 0,18, 0.00,60.00,Wednesday
213,196763680.61074534
5925,196763680.61074567
2,11, 1,11, 0,19, 0.00,60.00,Wednesday
213,236512609.44044995
5925,236512609.44045028
2,11, 1,11, 0,20, 0.00,60.00,Wednesday
213,230524816.4389414
5925,230524816.43894175
2,11, 1,11, 0,21, 0.00,60.00,Wednesday
213,214074835.3987825
5925,214074835.39878282
2,11, 1,11, 0,22, 0.00,60.00,Wednesday
213,194606923.20581144
5925,194606923.20581156
2,11, 1,11, 0,23, 0.00,60.00,Wednesday
213,165736881.11712173
5925,165736881.1171217
2,11, 1,11, 0,24, 0.00,60.00,Wednesday
213,127782688.322229
5925,127782688.32222903
2,12, 1,12, 0, 1, 0.00,60.00,Thursday
213,96415075.13855705
5925,96415075.13855703
2,12, 1,12, 0, 2, 0.00,60.00,Thursday
213,100150994.26591101
5925,100150994.26591103
2,12, 1,12, 0, 3, 0.00,60.00,Thursday
213,92891252.96829475
5925,92891252.96829475
2,12, 1,12, 0, 4, 0.00,60.00,Thursday
213,94844588.30715102
5925,94844588.30715103
2,12, 1,12, 0, 5, 0.00,60.00,Thursday
213,98681401.98188317
5925,98681401.98188317
2,12, 1,12, 0, 6, 0.00,60.00,Thursday
213,126594305.95375918
5925,126594305.9537592
2,12, 1,12, 0, 7, 0.00,60.00,Thursday
213,198620321.41267833
5925,198620321.4126783
2,12, 1,12, 0, 8, 0.00,60.00,Thursday
213,191990387.0206594
5925,191990387.02065942
2,12, 1,12, 0, 9, 0.00,60.00,Thursday
213,187280093.60790804
5925,187280093.607908
2,12, 1,12, 0,10, 0.00,60.00,Thursday
213,168762017.8534334
5925,168762017.8534334
2,12, 1,12, 0,11, 0.00,60.00,Thursday
213,159557271.87139645
5925,159557271.87139642
2,12, 1,12, 0,12, 0.00,60.00,Thursday
213,142109832.30819154
5925,142109832.30819154
2,12, 1,12, 0,13, 0.00,60.00,Thursday
213,143638442.20757553
5925,143638442.2075755
2,12, 1,12, 0,14, 0.00,60.00,Thursday
213,133469656.70978077
5925,133469656.70978077
2,12, 1,12, 0,15, 0.00,60.00,Thursday
213,124769257.16624275
5925,124769257.16624275
2,12, 1,12, 0,16, 0.00,60.00,Thursday
213,139802333.20090383
5925,139802333.20090383
2,12, 1,12, 0,17, 0.00,60.00,Thursday
213,162274007.7599711
5925,162274007.75997132
2,12, 1,12, 0,18, 0.00,60.00,Thursday
213,206654541.13937813
5925,206654541.13937846
2,12, 1,12, 0,19, 0.00,60.00,Thursday
213,230868918.7287798
5925,230868918.7287801
2,12, 1,12, 0,20, 0.00,60.00,Thursday
213,225643563.7513435
5925,225643563.75134385
2,12, 1,12, 0,21, 0.00,60.00,Thursday
213,220860514.44695604
5925,220860514.44695634
2,12, 1,12, 0,22, 0.00,60.00,Thursday
213,196380319.07954332
5925,196380319.07954353
2,12, 1,12, 0,23, 0.00,60.00,Thursday
213,156663987.82568935
5925,156663987.82568935
2,12, 1,12, 0,24, 0.00,60.00,Thursday
213,135915879.71162388
5925,135915879.71162388
2,13, 1,13, 0, 1, 0.00,60.00,Friday
213,102611486.39640324
5925,102611486.39640324
2,13, 1,13, 0, 2, 0.00,60.00,Friday
213,91242240.6534937
5925,91242240.6534937
2,13, 1,13, 0, 3, 0.00,60.00,Friday
213,103397546.02891874
5925,103397546.02891874
2,13, 1,13, 0, 4, 0.00,60.00,Friday
213,86237654.05202983
5925,86237654.05202982
2,13, 1,13, 0, 5, 0.00,60.00,Friday
213,106333944.58121017
5925,106333944.58121018
2,13, 1,13, 0, 6, 0.00,60.00,Friday
213,128859194.18715677
5925,128859194.18715677
2,13, 1,13, 0, 7, 0.00,60.00,Friday
213,196425854.0383025
5925,196425854.03830254
2,13, 1,13, 0, 8, 0.00,60.00,Friday
213,193939047.08608696
5925,193939047.08608693
2,13, 1,13, 0, 9, 0.00,60.00,Friday
213,186681423.71933746
5925,186681423.71933746
2,13, 1,13, 0,10, 0.00,60.00,Friday
213,164083698.0959995
5925,164083698.09599948
2,13, 1,13, 0,11, 0.00,60.00,Friday
213,166643891.76494357
5925,166643891.7649436
2,13, 1,13, 0,12, 0.00,60.00,Friday
213,144945413.24647644
5925,144945413.24647644
2,13, 1,13, 0,13, 0.00,60.00,Friday
213,137659372.43714008
5925,137659372.43714008
2,13, 1,13, 0,14, 0.00,60.00,Friday
213,129018612.65999049
5925,129018612.6599905
2,13, 1,13, 0,15, 0.00,60.00,Friday
213,130860566.21749064
5925,130860566.21749061
2,13, 1,13, 0,16, 0.00,60.00,Friday
213,133413423.47804475
5925,133413423.47804475
2,13, 1,13, 0,17, 0.00,60.00,Friday
213,163753918.93223318
5925,163753918.93223333
2,13, 1,13, 0,18, 0.00,60.00,Friday
213,204157517.60893917
5925,204157517.60893947
2,13, 1,13, 0,19, 0.00,60.00,Friday
213,235044624.40640196
5925,235044624.40640232
2,13, 1,13, 0,20, 0.00,60.00,Friday
213,232761304.7641665
5925,232761304.76416686
2,13, 1,13, 0,21, 0.00,60.00,Friday
213,214808857.5736765
5925,214808857.57367685
2,13, 1,13, 0,22, 0.00,60.00,Friday
213,194003300.22661173
5925,194003300.2266119
2,13, 1,13, 0,23, 0.00,60.00,Friday
213,167126306.2631871
5925,167126306.26318705
2,13, 1,13, 0,24, 0.00,60.00,Friday
213,128613419.5059801
5925,128613419.5059801
2,14, 1,14, 0, 1, 0.00,60.00,Saturday
213,109668369.1004296
5925,109668369.10042956
2,14, 1,14, 0, 2, 0.00,60.00,Saturday
213,92564394.59486575
5925,92564394.59486578
2,14, 1,14, 0, 3, 0.00,60.00,Saturday
213,90642098.1021514
5925,90642098.10215141
2,14, 1,14, 0, 4, 0.00,60.00,Saturday
213,99606128.05651303
5925,99606128.05651303
2,14, 1,14, 0, 5, 0.00,60.00,Saturday
213,97190204.26557213
5925,97190204.26557212
2,14, 1,14, 0, 6, 0.00,60.00,Saturday
213,128902011.47829646
5925,128902011.47829646
2,14, 1,14, 0, 7, 0.00,60.00,Saturday
213,196878379.59360117
5925,196878379.59360117
2,14, 1,14, 0, 8, 0.00,60.00,Saturday
213,195628664.77493057
5925,195628664.77493054
2,14, 1,14, 0, 9, 0.00,60.00,Saturday
213,182754643.3285176
5925,182754643.32851762
2,14, 1,14, 0,10, 0.00,60.00,Saturday
213,168928312.00762266
5925,168928312.00762263
2,14, 1,14, 0,11, 0.00,60.00,Saturday
213,149220474.92479378
5925,149220474.92479375
2,14, 1,14, 0,12, 0.00,60.00,Saturday
213,142231730.14121363
5925,142231730.14121366
2,14, 1,14, 0,13, 0.00,60.00,Saturday
213,140657888.49526957
5925,140657888.49526957
2,14, 1,14, 0,14, 0.00,60.00,Saturday
213,133952670.23041448
5925,133952670.23041447
2,14, 1,14, 0,15, 0.00,60.00,Saturday
213,114993860.60061862
5925,114993860.6006186
2,14, 1,14, 0,16, 0.00,60.00,Saturday
213,139982766.89780864
5925,139982766.89780867
2,14, 1,14, 0,17, 0.00,60.00,Saturday
213,163853978.0187887
5925,163853978.01878884
2,14, 1,14, 0,18, 0.00,60.00,Saturday
213,201013306.54178467
5925,201013306.541785
2,14, 1,14, 0,19, 0.00,60.00,Saturday
213,236802665.1413377
5925,236802665.14133805
2,14, 1,14, 0,20, 0.00,60.00,Saturday
213,219123666.15643248
5925,219123666.1564328
2,14, 1,14, 0,21, 0.00,60.00,Saturday
213,229773312.56085038
5925,229773312.5608507
2,14, 1,14, 0,22, 0.00,60.00,Saturday
213,192773008.09225857
5925,192773008.09225875
2,14, 1,14, 0,23, 0.00,60.00,Saturday
213,166623863.4592276
5925,166623863.45922762
2,14, 1,14, 0,24, 0.00,60.00,Saturday
213,129258868.37112486
5925,129258868.37112485
2,15, 1,15, 0, 1, 0.00,60.00,Sunday
213,97085961.53437594
5925,97085961.53437595
2,15, 1,15, 0, 2, 0.00,60.00,Sunday
213,106715450.0355855
5925,106715450.0355855
2,15, 1,15, 0, 3, 0.00,60.00,Sunday
213,87441644.21673477
5925,87441644.21673477
2,15, 1,15, 0, 4, 0.00,60.00,Sunday
213,89448268.11307445
5925,89448268.11307442
2,15, 1,15, 0, 5, 0.00,60.00,Sunday
213,106154722.55730209
5925,106154722.55730209
2,15, 1,15, 0, 6, 0.00,60.00,Sunday
213,129162962.08761169
5925,129162962.08761168
2,15, 1,15, 0, 7, 0.00,60.00,Sunday
213,194880605.94228145
5925,194880605.94228148
2,15, 1,15, 0, 8, 0.00,60.00,Sunday
213,197079417.6597848
5925,197079417.65978473
2,15, 1,15, 0, 9, 0.00,60.00,Sunday
213,182068315.00562757
5925,182068315.00562757
2,15, 1,15, 0,10, 0.00,60.00,Sunday
213,169255761.16207495
5925,169255761.16207495
2,15, 1,15, 0,11, 0.00,60.00,Sunday
213,151215601.3899508
5925,151215601.38995078
2,15, 1,15, 0,12, 0.00,60.00,Sunday
213,145964152.64271805
5925,145964152.64271802
2,15, 1,15, 0,13, 0.00,60.00,Sunday
213,138766996.49709743
5925,138766996.49709743
2,15, 1,15, 0,14, 0.00,60.00,Sunday
213,122755425.01866496
5925,122755425.01866496
2,15, 1,15, 0,15, 0.00,60.00,Sunday
213,131724082.60233042
5925,131724082.60233039
2,15, 1,15, 0,16, 0.00,60.00,Sunday
213,133650097.02078958
5925,133650097.0207896
2,15, 1,15, 0,17, 0.00,60.00,Sunday
213,158184777.51150107
5925,158184777.51150122
2,15, 1,15, 0,18, 0.00,60.00,Sunday