Program Version,EnergyPlus, Version 26.1.0-6f2e40d102, YMD=2026.04.15 00:03
1,5,Environment Title[],Latitude[deg],Longitude[deg],Time Zone[],Elevation[m]
2,8,Day of Simulation[],Month[],Day of Month[],DST Indicator[1=yes 0=no],Hour[],StartMinute[],EndMinute[],DayType
3,5,Cumulative Day of Simulation[],Month[],Day of Month[],DST Indicator[1=yes 0=no],DayType  ! When Daily Meters Requested
4,2,Cumulative Days of Simulation[],Month[]  ! When Monthly Meters Requested
5,1,Cumulative Days of Simulation[] ! When Run Period Meters Requested
6,1,Calendar Year of Simulation[] ! When Annual Meters Requested
213,1,Electricity:Facility [J] !Hourly
5925,1,ElectricityNet:Facility [J] !Hourly
End of Data Dictionary
1,RUNPERIOD 1,  28.11, 112.79,   8.00, 120.00
2,1, 1, 1, 0, 1, 0.00,60.00,Sunday
213,96664362.52756625
5925,96664362.52756625
2,1, 1, 1, 0, 2, 0.00,60.00,Sunday
213,99582807.52458611
5925,99582807.52458613
2,1, 1, 1, 0, 3, 0.00,60.00,Sunday
213,104520827.74081576
5925,104520827.74081574
2,1, 1, 1, 0, 4, 0.00,60.00,Sunday
213,97868421.45956805
5925,97868421.45956804
2,1, 1, 1, 0, 5, 0.00,60.00,Sunday
213,107826735.03496659
5925,107826735.03496659
2,1, 1, 1, 0, 6, 0.00,60.00,Sunday
213,134509726.15829837
5925,134509726.15829837
2,1, 1, 1, 0, 7, 0.00,60.00,Sunday
213,199724825.25632623
5925,199724825.25632626
2,1, 1, 1, 0, 8, 0.00,60.00,Sunday
213,203481939.75939664
5925,203481939.75939667
2,1, 1, 1, 0, 9, 0.00,60.00,Sunday
213,183478481.05763668
5925,183478481.05763665
2,1, 1, 1, 0,10, 0.00,60.00,Sunday
213,163852823.4166538
5925,163852823.4166538
2,1, 1, 1, 0,11, 0.00,60.00,Sunday
213,164592236.97944552
5925,164592236.97944546
2,1, 1, 1, 0,12, 0.00,60.00,Sunday
213,147472098.692851
5925,147472098.69285104
2,1, 1, 1, 0,13, 0.00,60.00,Sunday
213,136409606.37380916
5925,136409606.37380913
2,1, 1, 1, 0,14, 0.00,60.00,Sunday
213,140851333.4175397
5925,140851333.4175397
2,1, 1, 1, 0,15, 0.00,60.00,Sunday
213,121435514.45880261
5925,121435514.45880261
2,1, 1, 1, 0,16, 0.00,60.00,Sunday
213,147604344.08899882
5925,147604344.0889988
2,1, 1, 1, 0,17, 0.00,60.00,Sunday
213,166379480.6552308
5925,166379480.65523097
2,1, 1, 1, 0,18, 0.00,60.00,Sunday
213,207042769.3654116
5925,207042769.3654119
2,1, 1, 1, 0,19, 0.00,60.00,Sunday
213,245018841.01187494
5925,245018841.01187527
2,1, 1, 1, 0,20, 0.00,60.00,Sunday
213,228590996.94077718
5925,228590996.94077754
2,1, 1, 1, 0,21, 0.00,60.00,Sunday
213,231700467.29455033
5925,231700467.29455066
2,1, 1, 1, 0,22, 0.00,60.00,Sunday
213,202531620.53204748
5925,202531620.5320477
2,1, 1, 1, 0,23, 0.00,60.00,Sunday
213,173435191.2191602
5925,173435191.2191602
2,1, 1, 1, 0,24, 0.00,60.00,Sunday
213,136307396.49273106
5925,136307396.4927311
2,2, 1, 2, 0, 1, 0.00,60.00,Holiday
213,104528510.32375419
5925,104528510.32375419
2,2, 1, 2, 0, 2, 0.00,60.00,Holiday
213,106889863.72734332
5925,106889863.72734332
2,2, 1, 2, 0, 3, 0.00,60.00,Holiday
213,98570923.46774255
5925,98570923.46774256
2,2, 1, 2, 0, 4, 0.00,60.00,Holiday
213,92704912.45342255
5925,92704912.45342253
2,2, 1, 2, 0, 5, 0.00,60.00,Holiday
213,108858219.87399815
5925,108858219.87399814
2,2, 1, 2, 0, 6, 0.00,60.00,Holiday
213,135562907.65973184
5925,135562907.65973184
2,2, 1, 2, 0, 7, 0.00,60.00,Holiday
213,201520713.36628383
5925,201520713.36628377
2,2, 1, 2, 0, 8, 0.00,60.00,Holiday
213,205582093.7688678
5925,205582093.7688679
2,2, 1, 2, 0, 9, 0.00,60.00,Holiday
213,185125926.03795564
5925,185125926.03795564
2,2, 1, 2, 0,10, 0.00,60.00,Holiday
213,165424731.3061826
5925,165424731.3061826
2,2, 1, 2, 0,11, 0.00,60.00,Holiday
213,166500673.11865425
5925,166500673.11865425
2,2, 1, 2, 0,12, 0.00,60.00,Holiday
213,152933016.89147282
5925,152933016.89147285
2,2, 1, 2, 0,13, 0.00,60.00,Holiday
213,144642424.41786087
5925,144642424.41786084
2,2, 1, 2, 0,14, 0.00,60.00,Holiday
213,129207612.5104157
5925,129207612.51041569
2,2, 1, 2, 0,15, 0.00,60.00,Holiday
213,134032584.04761699
5925,134032584.04761696
2,2, 1, 2, 0,16, 0.00,60.00,Holiday
213,132682538.5332341
5925,132682538.5332341
2,2, 1, 2, 0,17, 0.00,60.00,Holiday
213,173900854.181773
5925,173900854.18177322
2,2, 1, 2, 0,18, 0.00,60.00,Holiday
213,204175834.94144762
5925,204175834.94144797
2,2, 1, 2, 0,19, 0.00,60.00,Holiday
213,246092143.57141015
5925,246092143.5714105
2,2, 1, 2, 0,20, 0.00,60.00,Holiday
213,236283171.19326591
5925,236283171.19326627
2,2, 1, 2, 0,21, 0.00,60.00,Holiday
213,222764181.26331317
5925,222764181.26331353
2,2, 1, 2, 0,22, 0.00,60.00,Holiday
213,200227191.97375128
5925,200227191.9737515
2,2, 1, 2, 0,23, 0.00,60.00,Holiday
213,174460170.74490613
5925,174460170.74490613
2,2, 1, 2, 0,24, 0.00,60.00,Holiday
213,137388045.84451437
5925,137388045.8445144
2,3, 1, 3, 0, 1, 0.00,60.00,Tuesday
213,118743129.67741151
5925,118743129.6774115
2,3, 1, 3, 0, 2, 0.00,60.00,Tuesday
213,102004193.09266564
5925,102004193.09266561
2,3, 1, 3, 0, 3, 0.00,60.00,Tuesday
213,93722066.70468321
5925,93722066.70468321
2,3, 1, 3, 0, 4, 0.00,60.00,Tuesday
213,106199372.72345263
5925,106199372.72345266
2,3, 1, 3, 0, 5, 0.00,60.00,Tuesday
213,104052872.70306474
5925,104052872.70306472
2,3, 1, 3, 0, 6, 0.00,60.00,Tuesday
213,138250389.23745227
5925,138250389.2374523
2,3, 1, 3, 0, 7, 0.00,60.00,Tuesday
213,203672680.36703017
5925,203672680.36703014
2,3, 1, 3, 0, 8, 0.00,60.00,Tuesday
213,199369106.38912696
5925,199369106.38912708
2,3, 1, 3, 0, 9, 0.00,60.00,Tuesday
213,198149476.90207684
5925,198149476.90207696
2,3, 1, 3, 0,10, 0.00,60.00,Tuesday
213,176492048.65019903
5925,176492048.65019906
2,3, 1, 3, 0,11, 0.00,60.00,Tuesday
213,165749953.078658
5925,165749953.078658
2,3, 1, 3, 0,12, 0.00,60.00,Tuesday
213,150883332.05871934
5925,150883332.05871934
2,3, 1, 3, 0,13, 0.00,60.00,Tuesday
213,149199220.47949624
5925,149199220.47949627
2,3, 1, 3, 0,14, 0.00,60.00,Tuesday
213,134254706.92794833
5925,134254706.9279483
2,3, 1, 3, 0,15, 0.00,60.00,Tuesday
213,146964962.90047538
5925,146964962.90047538
2,3, 1, 3, 0,16, 0.00,60.00,Tuesday
213,152072846.14230335
5925,152072846.14230332
2,3, 1, 3, 0,17, 0.00,60.00,Tuesday
213,159278308.81174245
5925,159278308.81174263
2,3, 1, 3, 0,18, 0.00,60.00,Tuesday
213,220023707.91368112
5925,220023707.91368148
2,3, 1, 3, 0,19, 0.00,60.00,Tuesday
213,233748185.2153405
5925,233748185.21534082
2,3, 1, 3, 0,20, 0.00,60.00,Tuesday
213,244617602.52969307
5925,244617602.52969337
2,3, 1, 3, 0,21, 0.00,60.00,Tuesday
213,220244703.03603572
5925,220244703.036036
2,3, 1, 3, 0,22, 0.00,60.00,Tuesday
213,204145003.16150177
5925,204145003.161502
2,3, 1, 3, 0,23, 0.00,60.00,Tuesday
213,174894539.68537503
5925,174894539.6853751
2,3, 1, 3, 0,24, 0.00,60.00,Tuesday
213,136321531.54338914
5925,136321531.5433892
2,4, 1, 4, 0, 1, 0.00,60.00,Wednesday
213,110751263.4719168
5925,110751263.4719168
2,4, 1, 4, 0, 2, 0.00,60.00,Wednesday
213,102153062.42028365
5925,102153062.42028363
2,4, 1, 4, 0, 3, 0.00,60.00,Wednesday
213,108389852.36722513
5925,108389852.36722514
2,4, 1, 4, 0, 4, 0.00,60.00,Wednesday
213,101590473.13358313
5925,101590473.13358314
2,4, 1, 4, 0, 5, 0.00,60.00,Wednesday
213,97462178.22001946
5925,97462178.22001946
2,4, 1, 4, 0, 6, 0.00,60.00,Wednesday
213,137652448.62450868
5925,137652448.62450865
2,4, 1, 4, 0, 7, 0.00,60.00,Wednesday
213,202936946.52485844
5925,202936946.52485844
2,4, 1, 4, 0, 8, 0.00,60.00,Wednesday
213,207224250.93494767
5925,207224250.93494785
2,4, 1, 4, 0, 9, 0.00,60.00,Wednesday
213,191007168.04076305
5925,191007168.0407632
2,4, 1, 4, 0,10, 0.00,60.00,Wednesday
213,184353155.57040882
5925,184353155.57040882
2,4, 1, 4, 0,11, 0.00,60.00,Wednesday
213,157268047.94841585
5925,157268047.94841585
2,4, 1, 4, 0,12, 0.00,60.00,Wednesday
213,155253680.35301042
5925,155253680.35301042
2,4, 1, 4, 0,13, 0.00,60.00,Wednesday
213,145218640.94665033
5925,145218640.94665033
2,4, 1, 4, 0,14, 0.00,60.00,Wednesday
213,143481764.0171636
5925,143481764.01716363
2,4, 1, 4, 0,15, 0.00,60.00,Wednesday
213,124273709.73806271
5925,124273709.7380627
2,4, 1, 4, 0,16, 0.00,60.00,Wednesday
213,149835120.411356
5925,149835120.41135594
2,4, 1, 4, 0,17, 0.00,60.00,Wednesday
213,176512387.4967409
5925,176512387.49674115
2,4, 1, 4, 0,18, 0.00,60.00,Wednesday
213,204652395.95278558
5925,204652395.9527859
2,4, 1, 4, 0,19, 0.00,60.00,Wednesday
213,245515696.63195056
5925,245515696.63195089
2,4, 1, 4, 0,20, 0.00,60.00,Wednesday
213,220449616.0483061
5925,220449616.04830647
2,4, 1, 4, 0,21, 0.00,60.00,Wednesday
213,238274026.6984359
5925,238274026.69843626
2,4, 1, 4, 0,22, 0.00,60.00,Wednesday
213,197289329.43815124
5925,197289329.43815145
2,4, 1, 4, 0,23, 0.00,60.00,Wednesday
213,159515433.2340186
5925,159515433.2340186
2,4, 1, 4, 0,24, 0.00,60.00,Wednesday
213,148901895.6984628
5925,148901895.6984628
2,5, 1, 5, 0, 1, 0.00,60.00,Thursday
213,104010174.09291027
5925,104010174.09291026
2,5, 1, 5, 0, 2, 0.00,60.00,Thursday
213,113403834.6344879
5925,113403834.6344879
2,5, 1, 5, 0, 3, 0.00,60.00,Thursday
213,92880848.52380794
5925,92880848.52380794
2,5, 1, 5, 0, 4, 0.00,60.00,Thursday
213,92029143.38775003
5925,92029143.38775003
2,5, 1, 5, 0, 5, 0.00,60.00,Thursday
213,114978981.92639954
5925,114978981.92639953
2,5, 1, 5, 0, 6, 0.00,60.00,Thursday
213,136167542.90009564
5925,136167542.90009567
2,5, 1, 5, 0, 7, 0.00,60.00,Thursday
213,202463968.60238495
5925,202463968.60238495
2,5, 1, 5, 0, 8, 0.00,60.00,Thursday
213,198605808.32389608
5925,198605808.32389617
2,5, 1, 5, 0, 9, 0.00,60.00,Thursday
213,196193043.6811288
5925,196193043.6811288
2,5, 1, 5, 0,10, 0.00,60.00,Thursday
213,158781483.1438083
5925,158781483.1438083
2,5, 1, 5, 0,11, 0.00,60.00,Thursday
213,173053615.18497947
5925,173053615.18497947
2,5, 1, 5, 0,12, 0.00,60.00,Thursday
213,143301689.40245622
5925,143301689.40245622
2,5, 1, 5, 0,13, 0.00,60.00,Thursday
213,134942100.65185824
5925,134942100.6518582
2,5, 1, 5, 0,14, 0.00,60.00,Thursday
213,131152299.90068911
5925,131152299.90068913
2,5, 1, 5, 0,15, 0.00,60.00,Thursday
213,136413289.65005147
5925,136413289.65005144
2,5, 1, 5, 0,16, 0.00,60.00,Thursday
213,127627437.87737891
5925,127627437.87737893
2,5, 1, 5, 0,17, 0.00,60.00,Thursday
213,162413082.12185347
5925,162413082.1218537
2,5, 1, 5, 0,18, 0.00,60.00,Thursday
213,198795102.87956068
5925,198795102.879561
2,5, 1, 5, 0,19, 0.00,60.00,Thursday
213,241204804.2245996
5925,241204804.22459993
2,5, 1, 5, 0,20, 0.00,60.00,Thursday
213,238856913.38278243
5925,238856913.38278276
2,5, 1, 5, 0,21, 0.00,60.00,Thursday
213,215123569.4461831
5925,215123569.44618335
2,5, 1, 5, 0,22, 0.00,60.00,Thursday
213,199499026.871231
5925,199499026.87123117
2,5, 1, 5, 0,23, 0.00,60.00,Thursday
213,170301804.2947603
5925,170301804.2947603
2,5, 1, 5, 0,24, 0.00,60.00,Thursday
213,131548085.75084826
5925,131548085.7508483
2,6, 1, 6, 0, 1, 0.00,60.00,Friday
213,106536376.64060462
5925,106536376.64060459
2,6, 1, 6, 0, 2, 0.00,60.00,Friday
213,96921486.2622052
5925,96921486.2622052
2,6, 1, 6, 0, 3, 0.00,60.00,Friday
213,96505920.66534136
5925,96505920.66534136
2,6, 1, 6, 0, 4, 0.00,60.00,Friday
213,102130314.52587803
5925,102130314.52587803
2,6, 1, 6, 0, 5, 0.00,60.00,Friday
213,98944995.01381399
5925,98944995.013814
2,6, 1, 6, 0, 6, 0.00,60.00,Friday
213,126539591.88050772
5925,126539591.88050774
2,6, 1, 6, 0, 7, 0.00,60.00,Friday
213,204105323.15870148
5925,204105323.15870148
2,6, 1, 6, 0, 8, 0.00,60.00,Friday
213,196965998.63332146
5925,196965998.63332152
2,6, 1, 6, 0, 9, 0.00,60.00,Friday
213,184529151.98958007
5925,184529151.9895801
2,6, 1, 6, 0,10, 0.00,60.00,Friday
213,174964493.2228764
5925,174964493.22287643
2,6, 1, 6, 0,11, 0.00,60.00,Friday
213,145491354.05082548
5925,145491354.05082548
2,6, 1, 6, 0,12, 0.00,60.00,Friday
213,143198385.57018566
5925,143198385.57018572
2,6, 1, 6, 0,13, 0.00,60.00,Friday
213,133414780.51368129
5925,133414780.51368129
2,6, 1, 6, 0,14, 0.00,60.00,Friday
213,118581523.14669475
5925,118581523.14669472
2,6, 1, 6, 0,15, 0.00,60.00,Friday
213,131704200.03456555
5925,131704200.03456554
2,6, 1, 6, 0,16, 0.00,60.00,Friday
213,134177736.3167677
5925,134177736.3167677
2,6, 1, 6, 0,17, 0.00,60.00,Friday
213,143969985.78396285
5925,143969985.78396285
2,6, 1, 6, 0,18, 0.00,60.00,Friday
213,205789897.60809946
5925,205789897.60809982
2,6, 1, 6, 0,19, 0.00,60.00,Friday
213,223176853.1316662
5925,223176853.13166654
2,6, 1, 6, 0,20, 0.00,60.00,Friday
213,233750772.45230478
5925,233750772.45230514
2,6, 1, 6, 0,21, 0.00,60.00,Friday
213,213029260.94719282
5925,213029260.9471931
2,6, 1, 6, 0,22, 0.00,60.00,Friday
213,189805219.42584783
5925,189805219.42584798
2,6, 1, 6, 0,23, 0.00,60.00,Friday
213,176630165.11842945
5925,176630165.11842945
2,6, 1, 6, 0,24, 0.00,60.00,Friday
213,131939594.58962083
5925,131939594.58962084
2,7, 1, 7, 0, 1, 0.00,60.00,Saturday
213,108007267.75414324
5925,108007267.75414324
2,7, 1, 7, 0, 2, 0.00,60.00,Saturday
213,100761667.12687998
5925,100761667.12687999
2,7, 1, 7, 0, 3, 0.00,60.00,Saturday
213,106128239.20983346
5925,106128239.20983344
2,7, 1, 7, 0, 4, 0.00,60.00,Saturday
213,99605990.5481185
5925,99605990.5481185
2,7, 1, 7, 0, 5, 0.00,60.00,Saturday
213,96747911.75091718
5925,96747911.75091717
2,7, 1, 7, 0, 6, 0.00,60.00,Saturday
213,146807620.64264515
5925,146807620.64264515
2,7, 1, 7, 0, 7, 0.00,60.00,Saturday
213,192858711.32448673
5925,192858711.3244867
2,7, 1, 7, 0, 8, 0.00,60.00,Saturday
213,212020615.55104038
5925,212020615.5510405
2,7, 1, 7, 0, 9, 0.00,60.00,Saturday
213,178980953.00971353
5925,178980953.0097136
2,7, 1, 7, 0,10, 0.00,60.00,Saturday
213,175388908.11029914
5925,175388908.11029914
2,7, 1, 7, 0,11, 0.00,60.00,Saturday
213,148650794.05938655
5925,148650794.05938655
2,7, 1, 7, 0,12, 0.00,60.00,Saturday
213,146714129.39314482
5925,146714129.39314482
2,7, 1, 7, 0,13, 0.00,60.00,Saturday
213,126315502.91496244
5925,126315502.91496246
2,7, 1, 7, 0,14, 0.00,60.00,Saturday
213,129663290.6922657
5925,129663290.6922657
2,7, 1, 7, 0,15, 0.00,60.00,Saturday
213,107238811.84510787
5925,107238811.84510787
2,7, 1, 7, 0,16, 0.00,60.00,Saturday
213,132934853.43066484
5925,132934853.43066484
2,7, 1, 7, 0,17, 0.00,60.00,Saturday
213,162354839.18518585
5925,162354839.18518585
2,7, 1, 7, 0,18, 0.00,60.00,Saturday
213,195996943.5212026
5925,195996943.52120298
2,7, 1, 7, 0,19, 0.00,60.00,Saturday
213,239029760.20532697
5925,239029760.2053273
2,7, 1, 7, 0,20, 0.00,60.00,Saturday
213,216833920.32943118
5925,216833920.32943147
2,7, 1, 7, 0,21, 0.00,60.00,Saturday
213,233721348.20782992
5925,233721348.20783028
2,7, 1, 7, 0,22, 0.00,60.00,Saturday
213,191457221.2428737
5925,191457221.24287388
2,7, 1, 7, 0,23, 0.00,60.00,Saturday
213,170312240.31294298
5925,170312240.31294295
2,7, 1, 7, 0,24, 0.00,60.00,Saturday
213,132416448.97697195
5925,132416448.97697192
2,8, 1, 8, 0, 1, 0.00,60.00,Sunday
213,101343147.7013809
5925,101343147.70138088
2,8, 1, 8, 0, 2, 0.00,60.00,Sunday
213,112670812.56901775
5925,112670812.56901775
2,8, 1, 8, 0, 3, 0.00,60.00,Sunday
213,92187271.64371413
5925,92187271.64371413
2,8, 1, 8, 0, 4, 0.00,60.00,Sunday
213,92038013.58134513
5925,92038013.58134514
2,8, 1, 8, 0, 5, 0.00,60.00,Sunday
213,116230586.71264273
5925,116230586.71264271
2,8, 1, 8, 0, 6, 0.00,60.00,Sunday
213,136159852.65413377
5925,136159852.65413377
2,8, 1, 8, 0, 7, 0.00,60.00,Sunday
213,202182510.11257356
5925,202182510.1125736
2,8, 1, 8, 0, 8, 0.00,60.00,Sunday
213,202475165.46942788
5925,202475165.46942794
2,8, 1, 8, 0, 9, 0.00,60.00,Sunday
213,188014143.98127815
5925,188014143.98127812
2,8, 1, 8, 0,10, 0.00,60.00,Sunday
213,169272724.91206574
5925,169272724.91206574
2,8, 1, 8, 0,11, 0.00,60.00,Sunday
213,147765425.92585918
5925,147765425.92585918
2,8, 1, 8, 0,12, 0.00,60.00,Sunday
213,137406783.45890692
5925,137406783.4589069
2,8, 1, 8, 0,13, 0.00,60.00,Sunday
213,131918010.46617815
5925,131918010.46617813
2,8, 1, 8, 0,14, 0.00,60.00,Sunday
213,113838428.54615907
5925,113838428.54615906
2,8, 1, 8, 0,15, 0.00,60.00,Sunday
213,119214771.27731222
5925,119214771.27731222
2,8, 1, 8, 0,16, 0.00,60.00,Sunday
213,120470250.80118069
5925,120470250.8011807
2,8, 1, 8, 0,17, 0.00,60.00,Sunday
213,149283763.88279235
5925,149283763.88279238
2,8, 1, 8, 0,18, 0.00,60.00,Sunday
213,208691062.25129843
5925,208691062.2512987
2,8, 1, 8, 0,19, 0.00,60.00,Sunday
213,218754136.9986416
5925,218754136.9986419
2,8, 1, 8, 0,20, 0.00,60.00,Sunday
213,234070693.08582252
5925,234070693.08582285
2,8, 1, 8, 0,21, 0.00,60.00,Sunday
213,211275854.7386931
5925,211275854.73869336
2,8, 1, 8, 0,22, 0.00,60.00,Sunday
213,196673279.0249189
5925,196673279.0249191
2,8, 1, 8, 0,23, 0.00,60.00,Sunday
213,168432939.35204634
5925,168432939.35204637
2,8, 1, 8, 0,24, 0.00,60.00,Sunday
213,130741782.10945702
5925,130741782.10945703
2,9, 1, 9, 0, 1, 0.00,60.00,Monday
213,113113027.40679298
5925,113113027.40679297
2,9, 1, 9, 0, 2, 0.00,60.00,Monday
213,92212583.42028588
5925,92212583.42028588
2,9, 1, 9, 0, 3, 0.00,60.00,Monday
213,108223773.9184831
5925,108223773.9184831
2,9, 1, 9, 0, 4, 0.00,60.00,Monday
213,94476503.74920543
5925,94476503.74920543
2,9, 1, 9, 0, 5, 0.00,60.00,Monday
213,103016026.53096157
5925,103016026.53096156
2,9, 1, 9, 0, 6, 0.00,60.00,Monday
213,136677057.1323503
5925,136677057.1323503
2,9, 1, 9, 0, 7, 0.00,60.00,Monday
213,203204476.4966977
5925,203204476.49669766
2,9, 1, 9, 0, 8, 0.00,60.00,Monday
213,200424234.72946626
5925,200424234.72946644
2,9, 1, 9, 0, 9, 0.00,60.00,Monday
213,196513571.27337623
5925,196513571.27337635
2,9, 1, 9, 0,10, 0.00,60.00,Monday
213,170820197.72397226
5925,170820197.72397223
2,9, 1, 9, 0,11, 0.00,60.00,Monday
213,154794913.4293345
5925,154794913.42933452
2,9, 1, 9, 0,12, 0.00,60.00,Monday
213,134950129.25698116
5925,134950129.25698116
2,9, 1, 9, 0,13, 0.00,60.00,Monday
213,140765384.018113
5925,140765384.01811296
2,9, 1, 9, 0,14, 0.00,60.00,Monday
213,131422212.6551583
5925,131422212.65515831
2,9, 1, 9, 0,15, 0.00,60.00,Monday
213,120344191.18545689
5925,120344191.18545687
2,9, 1, 9, 0,16, 0.00,60.00,Monday
213,140698238.0326403
5925,140698238.0326403
2,9, 1, 9, 0,17, 0.00,60.00,Monday
213,154055113.55256057
5925,154055113.5525606
2,9, 1, 9, 0,18, 0.00,60.00,Monday
213,193008224.35850036
5925,193008224.35850066
2,9, 1, 9, 0,19, 0.00,60.00,Monday
213,231134473.38345632
5925,231134473.38345665
2,9, 1, 9, 0,20, 0.00,60.00,Monday
213,219882638.38990664
5925,219882638.389907
2,9, 1, 9, 0,21, 0.00,60.00,Monday
213,221374971.43919408
5925,221374971.4391944
2,9, 1, 9, 0,22, 0.00,60.00,Monday
213,197015528.1252463
5925,197015528.12524647
2,9, 1, 9, 0,23, 0.00,60.00,Monday
213,164122715.60128137
5925,164122715.60128137
2,9, 1, 9, 0,24, 0.00,60.00,Monday
213,131174741.17544775
5925,131174741.17544775
2,10, 1,10, 0, 1, 0.00,60.00,Tuesday
213,104916624.22746527
5925,104916624.22746523
2,10, 1,10, 0, 2, 0.00,60.00,Tuesday
213,101887072.97159733
5925,101887072.97159733
2,10, 1,10, 0, 3, 0.00,60.00,Tuesday
213,101846666.94261412
5925,101846666.94261414
2,10, 1,10, 0, 4, 0.00,60.00,Tuesday
213,91185164.76886941
5925,91185164.76886941
2,10, 1,10, 0, 5, 0.00,60.00,Tuesday
213,114694322.89141305
5925,114694322.89141306
2,10, 1,10, 0, 6, 0.00,60.00,Tuesday
213,133380041.41285612
5925,133380041.41285612
2,10, 1,10, 0, 7, 0.00,60.00,Tuesday
213,206092158.2448733
5925,206092158.2448733
2,10, 1,10, 0, 8, 0.00,60.00,Tuesday
213,200135528.71688792
5925,200135528.71688807
2,10, 1,10, 0, 9, 0.00,60.00,Tuesday
213,192790486.51932764
5925,192790486.5193277
2,10, 1,10, 0,10, 0.00,60.00,Tuesday
213,167137307.15616173
5925,167137307.15616167
2,10, 1,10, 0,11, 0.00,60.00,Tuesday
213,160747355.67047054
5925,160747355.67047054
2,10, 1,10, 0,12, 0.00,60.00,Tuesday
213,135150828.5218349
5925,135150828.5218349
2,10, 1,10, 0,13, 0.00,60.00,Tuesday
213,133804600.77833724
5925,133804600.77833724
2,10, 1,10, 0,14, 0.00,60.00,Tuesday
213,122026225.4828912
5925,122026225.4828912
2,10, 1,10, 0,15, 0.00,60.00,Tuesday
213,131836693.79851782
5925,131836693.79851784
2,10, 1,10, 0,16, 0.00,60.00,Tuesday
213,130898580.98795742
5925,130898580.9879574
2,10, 1,10, 0,17, 0.00,60.00,Tuesday
213,149453106.34500194
5925,149453106.34500194
2,10, 1,10, 0,18, 0.00,60.00,Tuesday
213,197772952.5786204
5925,197772952.57862073
2,10, 1,10, 0,19, 0.00,60.00,Tuesday
213,219594762.1299699
5925,219594762.1299702
2,10, 1,10, 0,20, 0.00,60.00,Tuesday
213,228016547.92145628
5925,228016547.92145658
2,10, 1,10, 0,21, 0.00,60.00,Tuesday
213,206909351.95934677
5925,206909351.95934704
2,10, 1,10, 0,22, 0.00,60.00,Tuesday
213,192109625.6197309
5925,192109625.61973107
2,10, 1,10, 0,23, 0.00,60.00,Tuesday
213,163377912.24913228
5925,163377912.24913228
2,10, 1,10, 0,24, 0.00,60.00,Tuesday
213,124810239.86592308
5925,124810239.86592308
2,11, 1,11, 0, 1, 0.00,60.00,Wednesday
213,100438709.89401403
5925,100438709.894014
2,11, 1,11, 0, 2, 0.00,60.00,Wednesday
213,90480993.66907823
5925,90480993.66907822
2,11, 1,11, 0, 3, 0.00,60.00,Wednesday
213,97692143.59207943
5925,97692143.59207943
2,11, 1,11, 0, 4, 0.00,60.00,Wednesday
213,91301237.74711914
5925,91301237.74711913
2,11, 1,11, 0, 5, 0.00,60.00,Wednesday
213,90890787.0200991
5925,90890787.0200991
2,11, 1,11, 0, 6, 0.00,60.00,Wednesday
213,134664774.71652037
5925,134664774.71652034
2,11, 1,11, 0, 7, 0.00,60.00,Wednesday
213,187904472.2623414
5925,187904472.26234138
2,11, 1,11, 0, 8, 0.00,60.00,Wednesday
213,196726801.19041854
5925,196726801.1904185
2,11, 1,11, 0, 9, 0.00,60.00,Wednesday
213,183363679.47447416
5925,183363679.4744742
2,11, 1,11, 0,10, 0.00,60.00,Wednesday
213,171948465.33165446
5925,171948465.3316544
2,11, 1,11, 0,11, 0.00,60.00,Wednesday
213,156405043.73354438
5925,156405043.73354438
2,11, 1,11, 0,12, 0.00,60.00,Wednesday
213,147930889.16392994
5925,147930889.16392994
2,11, 1,11, 0,13, 0.00,60.00,Wednesday
213,138351311.28910488
5925,138351311.28910488
2,11, 1,11, 0,14, 0.00,60.00,Wednesday
213,131609892.16620581
5925,131609892.1662058
2,11, 1,11, 0,15, 0.00,60.00,Wednesday
213,128805240.72071253
5925,128805240.7207125
2,11, 1,11, 0,16, 0.00,60.00,Wednesday
213,145557894.72179306
5925,145557894.72179303
2,11, 1,11, 0,17, 0.00,60.00,Wednesday
213,162337560.43037117
5925,162337560.43037134
2,11, 1,11, 0,18, 0.00,60.00,Wednesday
213,204666031.59220976
5925,204666031.5922101
2,11, 1,11, 0,19, 0.00,60.00,Wednesday
213,239066482.0284156
5925,239066482.028416
2,11, 1,11, 0,20, 0.00,60.00,Wednesday
213,234376626.12679487
5925,234376626.12679523
2,11, 1,11, 0,21, 0.00,60.00,Wednesday
213,218345305.19683206
5925,218345305.19683236
2,11, 1,11, 0,22, 0.00,60.00,Wednesday
213,200373297.23304397
5925,200373297.2330442
2,11, 1,11, 0,23, 0.00,60.00,Wednesday
213,169442709.860285
5925,169442709.860285
2,11, 1,11, 0,24, 0.00,60.00,Wednesday
213,132927684.1266889
5925,132927684.1266889
2,12, 1,12, 0, 1, 0.00,60.00,Thursday
213,101712131.4237272
5925,101712131.42372721
2,12, 1,12, 0, 2, 0.00,60.00,Thursday
213,105567326.63192008
5925,105567326.63192008
2,12, 1,12, 0, 3, 0.00,60.00,Thursday
213,98358756.1738837
5925,98358756.1738837
2,12, 1,12, 0, 4, 0.00,60.00,Thursday
213,101184614.89445522
5925,101184614.89445522
2,12, 1,12, 0, 5, 0.00,60.00,Thursday
213,104150621.4293311
5925,104150621.42933108
2,12, 1,12, 0, 6, 0.00,60.00,Thursday
213,135889247.31568772
5925,135889247.31568772
2,12, 1,12, 0, 7, 0.00,60.00,Thursday
213,201680664.84072453
5925,201680664.84072456
2,12, 1,12, 0, 8, 0.00,60.00,Thursday
213,201439351.24979347
5925,201439351.2497936
2,12, 1,12, 0, 9, 0.00,60.00,Thursday
213,193798536.57901517
5925,193798536.5790152
2,12, 1,12, 0,10, 0.00,60.00,Thursday
213,174835318.9033603
5925,174835318.90336034
2,12, 1,12, 0,11, 0.00,60.00,Thursday
213,161355405.747522
5925,161355405.747522
2,12, 1,12, 0,12, 0.00,60.00,Thursday
213,151195546.5815666
5925,151195546.58156663
2,12, 1,12, 0,13, 0.00,60.00,Thursday
213,145388391.5120474
5925,145388391.5120474
2,12, 1,12, 0,14, 0.00,60.00,Thursday
213,137804448.59745893
5925,137804448.59745893
2,12, 1,12, 0,15, 0.00,60.00,Thursday
213,133567245.5517229
5925,133567245.55172288
2,12, 1,12, 0,16, 0.00,60.00,Thursday
213,145065185.63244686
5925,145065185.6324469
2,12, 1,12, 0,17, 0.00,60.00,Thursday
213,165444382.36797112
5925,165444382.36797133
2,12, 1,12, 0,18, 0.00,60.00,Thursday
213,211706251.16784394
5925,211706251.16784424
2,12, 1,12, 0,19, 0.00,60.00,Thursday
213,237749467.84496003
5925,237749467.8449604
2,12, 1,12, 0,20, 0.00,60.00,Thursday
213,234039877.93204463
5925,234039877.93204495
2,12, 1,12, 0,21, 0.00,60.00,Thursday
213,224200459.98689294
5925,224200459.98689324
2,12, 1,12, 0,22, 0.00,60.00,Thursday
213,202532423.1265015
5925,202532423.12650174
2,12, 1,12, 0,23, 0.00,60.00,Thursday
213,165190923.33842638
5925,165190923.3384264
2,12, 1,12, 0,24, 0.00,60.00,Thursday
213,140883309.56991836
5925,140883309.56991836
2,13, 1,13, 0, 1, 0.00,60.00,Friday
213,108100698.75434999
5925,108100698.75434999
2,13, 1,13, 0, 2, 0.00,60.00,Friday
213,99863789.82805105
5925,99863789.82805103
2,13, 1,13, 0, 3, 0.00,60.00,Friday
213,103542066.0838643
5925,103542066.08386433
2,13, 1,13, 0, 4, 0.00,60.00,Friday
213,100203165.8747415
5925,100203165.87474148
2,13, 1,13, 0, 5, 0.00,60.00,Friday
213,107704636.2480138
5925,107704636.2480138
2,13, 1,13, 0, 6, 0.00,60.00,Friday
213,138164192.24681813
5925,138164192.24681813
2,13, 1,13, 0, 7, 0.00,60.00,Friday
213,201087870.2961524
5925,201087870.2961524
2,13, 1,13, 0, 8, 0.00,60.00,Friday
213,203434585.62810615
5925,203434585.62810627
2,13, 1,13, 0, 9, 0.00,60.00,Friday
213,193094009.61724576
5925,193094009.61724582
2,13, 1,13, 0,10, 0.00,60.00,Friday
213,172850168.54606983
5925,172850168.54606986
2,13, 1,13, 0,11, 0.00,60.00,Friday
213,165572745.85033485
5925,165572745.85033488
2,13, 1,13, 0,12, 0.00,60.00,Friday
213,153572505.8098616
5925,153572505.8098616
2,13, 1,13, 0,13, 0.00,60.00,Friday
213,141846549.9085203
5925,141846549.9085203
2,13, 1,13, 0,14, 0.00,60.00,Friday
213,137125150.6543601
5925,137125150.6543601
2,13, 1,13, 0,15, 0.00,60.00,Friday
213,135315283.0509024
5925,135315283.05090243
2,13, 1,13, 0,16, 0.00,60.00,Friday
213,138936064.58510548
5925,138936064.58510545
2,13, 1,13, 0,17, 0.00,60.00,Friday
213,168886818.25876448
5925,168886818.25876468
2,13, 1,13, 0,18, 0.00,60.00,Friday
213,209073292.10407493
5925,209073292.10407525
2,13, 1,13, 0,19, 0.00,60.00,Friday
213,241077565.63966426
5925,241077565.63966462
2,13, 1,13, 0,20, 0.00,60.00,Friday
213,235039246.56141302
5925,235039246.56141335
2,13, 1,13, 0,21, 0.00,60.00,Friday
213,224700997.9303032
5925,224700997.9303035
2,13, 1,13, 0,22, 0.00,60.00,Friday
213,200583358.32831103
5925,200583358.32831126
2,13, 1,13, 0,23, 0.00,60.00,Friday
213,172891686.0579244
5925,172891686.0579244
2,13, 1,13, 0,24, 0.00,60.00,Friday
213,134361317.84454197
5925,134361317.84454197
2,14, 1,14, 0, 1, 0.00,60.00,Saturday
213,113019043.0858692
5925,113019043.08586916
2,14, 1,14, 0, 2, 0.00,60.00,Saturday
213,101276262.61925256
5925,101276262.61925256
2,14, 1,14, 0, 3, 0.00,60.00,Saturday
213,95817910.54601482
5925,95817910.54601485
2,14, 1,14, 0, 4, 0.00,60.00,Saturday
213,105062860.44317321
5925,105062860.4431732
2,14, 1,14, 0, 5, 0.00,60.00,Saturday
213,103396588.2513589
5925,103396588.2513589
2,14, 1,14, 0, 6, 0.00,60.00,Saturday
213,137308458.17858708
5925,137308458.17858708
2,14, 1,14, 0, 7, 0.00,60.00,Saturday
213,203557545.7616017
5925,203557545.76160172
2,14, 1,14, 0, 8, 0.00,60.00,Saturday
213,204692491.36476642
5925,204692491.36476657
2,14, 1,14, 0, 9, 0.00,60.00,Saturday
213,186188141.2863748
5925,186188141.2863748
2,14, 1,14, 0,10, 0.00,60.00,Saturday
213,175402758.42114887
5925,175402758.4211489
2,14, 1,14, 0,11, 0.00,60.00,Saturday
213,155470927.71741116
5925,155470927.71741116
2,14, 1,14, 0,12, 0.00,60.00,Saturday
213,151168812.3468697
5925,151168812.3468697
2,14, 1,14, 0,13, 0.00,60.00,Saturday
213,143413979.3060246
5925,143413979.3060246
2,14, 1,14, 0,14, 0.00,60.00,Saturday
213,135830104.59802052
5925,135830104.59802052
2,14, 1,14, 0,15, 0.00,60.00,Saturday
213,127523980.16030125
5925,127523980.16030125
2,14, 1,14, 0,16, 0.00,60.00,Saturday
213,142766775.68858853
5925,142766775.68858853
2,14, 1,14, 0,17, 0.00,60.00,Saturday
213,169436463.0657912
5925,169436463.06579137
2,14, 1,14, 0,18, 0.00,60.00,Saturday
213,208654330.89447463
5925,208654330.89447492
2,14, 1,14, 0,19, 0.00,60.00,Saturday
213,242812263.3248549
5925,242812263.32485527
2,14, 1,14, 0,20, 0.00,60.00,Saturday
213,228890493.55313697
5925,228890493.55313727
2,14, 1,14, 0,21, 0.00,60.00,Saturday
213,233103646.30782324
5925,233103646.30782354
2,14, 1,14, 0,22, 0.00,60.00,Saturday
213,199452536.1225678
5925,199452536.12256804
2,14, 1,14, 0,23, 0.00,60.00,Saturday
213,175472035.35853326
5925,175472035.35853323
2,14, 1,14, 0,24, 0.00,60.00,Saturday
213,132181792.67710945
5925,132181792.67710945
2,15, 1,15, 0, 1, 0.00,60.00,Sunday
213,106480503.87197039
5925,106480503.87197037
2,15, 1,15, 0, 2, 0.00,60.00,Sunday
213,106486284.01031692
5925,106486284.01031694
2,15, 1,15, 0, 3, 0.00,60.00,Sunday
213,100439753.44698411
5925,100439753.44698411
2,15, 1,15, 0, 4, 0.00,60.00,Sunday
213,96247467.78447773
5925,96247467.78447774
2,15, 1,15, 0, 5, 0.00,60.00,Sunday
213,108520352.34377722
5925,108520352.34377722
2,15, 1,15, 0, 6, 0.00,60.00,Sunday
213,135170959.2401344
5925,135170959.2401344
2,15, 1,15, 0, 7, 0.00,60.00,Sunday
213,201045345.02451763
5925,201045345.0245176
2,15, 1,15, 0, 8, 0.00,60.00,Sunday
213,204763885.9546454
5925,204763885.9546455
2,15, 1,15, 0, 9, 0.00,60.00,Sunday
213,185666321.8689683
5925,185666321.8689683
2,15, 1,15, 0,10, 0.00,60.00,Sunday
213,176213508.50161237
5925,176213508.50161234
2,15, 1,15, 0,11, 0.00,60.00,Sunday
213,163285301.5251177
5925,163285301.5251177
2,15, 1,15, 0,12, 0.00,60.00,Sunday
213,148674245.20009542
5925,148674245.20009544
2,15, 1,15, 0,13, 0.00,60.00,Sunday
213,141245156.5033723
5925,141245156.5033723
2,15, 1,15, 0,14, 0.00,60.00,Sunday
213,131121946.84820685
5925,131121946.84820683
2,15, 1,15, 0,15, 0.00,60.00,Sunday
213,139864543.65367532
5925,139864543.65367532
2,15, 1,15, 0,16, 0.00,60.00,Sunday
213,138163973.86114585
5925,138163973.86114585
2,15, 1,15, 0,17, 0.00,60.00,Sunday
213,164276138.2718471
5925,164276138.27184728