Program Version,EnergyPlus, Version 26.1.0-6f2e40d102, YMD=2026.04.15 00:32
1,5,Environment Title[],Latitude[deg],Longitude[deg],Time Zone[],Elevation[m]
2,8,Day of Simulation[],Month[],Day of Month[],DST Indicator[1=yes 0=no],Hour[],StartMinute[],EndMinute[],DayType
3,5,Cumulative Day of Simulation[],Month[],Day of Month[],DST Indicator[1=yes 0=no],DayType  ! When Daily Meters Requested
4,2,Cumulative Days of Simulation[],Month[]  ! When Monthly Meters Requested
5,1,Cumulative Days of Simulation[] ! When Run Period Meters Requested
6,1,Calendar Year of Simulation[] ! When Annual Meters Requested
213,1,Electricity:Facility [J] !Hourly
6085,1,ElectricityNet:Facility [J] !Hourly
End of Data Dictionary
1,RUNPERIOD 1,  28.11, 112.79,   8.00, 120.00
2,1, 1, 1, 0, 1, 0.00,60.00,Holiday
213,158194413.9557119
6085,158194413.95571184
2,1, 1, 1, 0, 2, 0.00,60.00,Holiday
213,151283286.60273218
6085,151283286.602732
2,1, 1, 1, 0, 3, 0.00,60.00,Holiday
213,147897015.90033686
6085,147897015.90033677
2,1, 1, 1, 0, 4, 0.00,60.00,Holiday
213,146758086.6038881
6085,146758086.60388806
2,1, 1, 1, 0, 5, 0.00,60.00,Holiday
213,149889048.76003537
6085,149889048.76003516
2,1, 1, 1, 0, 6, 0.00,60.00,Holiday
213,167724292.8299521
6085,167724292.8299519
2,1, 1, 1, 0, 7, 0.00,60.00,Holiday
213,197724893.21705553
6085,197724893.2170553
2,1, 1, 1, 0, 8, 0.00,60.00,Holiday
213,201207046.3154413
6085,201207046.31544113
2,1, 1, 1, 0, 9, 0.00,60.00,Holiday
213,188060241.3728943
6085,188060241.37289402
2,1, 1, 1, 0,10, 0.00,60.00,Holiday
213,178998034.14787534
6085,178998034.14787516
2,1, 1, 1, 0,11, 0.00,60.00,Holiday
213,169207661.48415166
6085,169207661.48415145
2,1, 1, 1, 0,12, 0.00,60.00,Holiday
213,172486903.77396247
6085,172486903.7739622
2,1, 1, 1, 0,13, 0.00,60.00,Holiday
213,171329343.88719192
6085,171329343.88719174
2,1, 1, 1, 0,14, 0.00,60.00,Holiday
213,165155260.46332857
6085,165155260.46332836
2,1, 1, 1, 0,15, 0.00,60.00,Holiday
213,165933029.67477092
6085,165933029.67477068
2,1, 1, 1, 0,16, 0.00,60.00,Holiday
213,174072060.41440094
6085,174072060.41440073
2,1, 1, 1, 0,17, 0.00,60.00,Holiday
213,209236563.2978
6085,209236563.29779983
2,1, 1, 1, 0,18, 0.00,60.00,Holiday
213,270813580.783525
6085,270813580.78352547
2,1, 1, 1, 0,19, 0.00,60.00,Holiday
213,290104644.11444974
6085,290104644.1144502
2,1, 1, 1, 0,20, 0.00,60.00,Holiday
213,275826084.7508003
6085,275826084.7508008
2,1, 1, 1, 0,21, 0.00,60.00,Holiday
213,269115368.3732166
6085,269115368.37321705
2,1, 1, 1, 0,22, 0.00,60.00,Holiday
213,248535856.8183341
6085,248535856.81833428
2,1, 1, 1, 0,23, 0.00,60.00,Holiday
213,212026799.16574413
6085,212026799.16574392
2,1, 1, 1, 0,24, 0.00,60.00,Holiday
213,181376632.0249452
6085,181376632.024945
2,2, 1, 2, 0, 1, 0.00,60.00,Monday
213,158874946.38726962
6085,158874946.38726956
2,2, 1, 2, 0, 2, 0.00,60.00,Monday
213,152441124.5048388
6085,152441124.50483862
2,2, 1, 2, 0, 3, 0.00,60.00,Monday
213,149114502.97964185
6085,149114502.97964174
2,2, 1, 2, 0, 4, 0.00,60.00,Monday
213,148257126.50060275
6085,148257126.5006027
2,2, 1, 2, 0, 5, 0.00,60.00,Monday
213,151059342.1396362
6085,151059342.139636
2,2, 1, 2, 0, 6, 0.00,60.00,Monday
213,168813983.44148877
6085,168813983.4414886
2,2, 1, 2, 0, 7, 0.00,60.00,Monday
213,197918998.9888218
6085,197918998.98882163
2,2, 1, 2, 0, 8, 0.00,60.00,Monday
213,201632268.67997754
6085,201632268.67997736
2,2, 1, 2, 0, 9, 0.00,60.00,Monday
213,192416152.50956315
6085,192416152.5095629
2,2, 1, 2, 0,10, 0.00,60.00,Monday
213,182593236.14978886
6085,182593236.14978865
2,2, 1, 2, 0,11, 0.00,60.00,Monday
213,173346678.49982506
6085,173346678.49982488
2,2, 1, 2, 0,12, 0.00,60.00,Monday
213,175024686.32399678
6085,175024686.32399654
2,2, 1, 2, 0,13, 0.00,60.00,Monday
213,173185299.1145927
6085,173185299.1145925
2,2, 1, 2, 0,14, 0.00,60.00,Monday
213,170743947.832776
6085,170743947.8327758
2,2, 1, 2, 0,15, 0.00,60.00,Monday
213,168357583.228487
6085,168357583.2284868
2,2, 1, 2, 0,16, 0.00,60.00,Monday
213,176700224.6766217
6085,176700224.67662147
2,2, 1, 2, 0,17, 0.00,60.00,Monday
213,212913138.88807768
6085,212913138.88807756
2,2, 1, 2, 0,18, 0.00,60.00,Monday
213,267480297.28295723
6085,267480297.2829578
2,2, 1, 2, 0,19, 0.00,60.00,Monday
213,289630284.4028518
6085,289630284.4028523
2,2, 1, 2, 0,20, 0.00,60.00,Monday
213,275436440.57354486
6085,275436440.57354534
2,2, 1, 2, 0,21, 0.00,60.00,Monday
213,268804203.87260705
6085,268804203.8726076
2,2, 1, 2, 0,22, 0.00,60.00,Monday
213,248123116.0105276
6085,248123116.01052776
2,2, 1, 2, 0,23, 0.00,60.00,Monday
213,211350032.2793377
6085,211350032.27933753
2,2, 1, 2, 0,24, 0.00,60.00,Monday
213,181639995.6876712
6085,181639995.68767098
2,3, 1, 3, 0, 1, 0.00,60.00,Tuesday
213,161268795.34075114
6085,161268795.34075105
2,3, 1, 3, 0, 2, 0.00,60.00,Tuesday
213,155006454.13150877
6085,155006454.13150856
2,3, 1, 3, 0, 3, 0.00,60.00,Tuesday
213,152352511.23097327
6085,152352511.23097312
2,3, 1, 3, 0, 4, 0.00,60.00,Tuesday
213,151356998.67064485
6085,151356998.67064482
2,3, 1, 3, 0, 5, 0.00,60.00,Tuesday
213,154693712.82057998
6085,154693712.8205798
2,3, 1, 3, 0, 6, 0.00,60.00,Tuesday
213,174420253.56271416
6085,174420253.56271398
2,3, 1, 3, 0, 7, 0.00,60.00,Tuesday
213,200602385.01739845
6085,200602385.0173983
2,3, 1, 3, 0, 8, 0.00,60.00,Tuesday
213,201827449.72520876
6085,201827449.72520855
2,3, 1, 3, 0, 9, 0.00,60.00,Tuesday
213,194553185.54170448
6085,194553185.54170424
2,3, 1, 3, 0,10, 0.00,60.00,Tuesday
213,186621071.93833658
6085,186621071.93833634
2,3, 1, 3, 0,11, 0.00,60.00,Tuesday
213,177289565.56921947
6085,177289565.56921926
2,3, 1, 3, 0,12, 0.00,60.00,Tuesday
213,179256554.3387623
6085,179256554.33876204
2,3, 1, 3, 0,13, 0.00,60.00,Tuesday
213,175741182.44917735
6085,175741182.44917718
2,3, 1, 3, 0,14, 0.00,60.00,Tuesday
213,173390433.63801783
6085,173390433.63801762
2,3, 1, 3, 0,15, 0.00,60.00,Tuesday
213,171511995.94782677
6085,171511995.94782656
2,3, 1, 3, 0,16, 0.00,60.00,Tuesday
213,179996427.53729782
6085,179996427.5372976
2,3, 1, 3, 0,17, 0.00,60.00,Tuesday
213,215914193.78187668
6085,215914193.78187644
2,3, 1, 3, 0,18, 0.00,60.00,Tuesday
213,267261186.59863397
6085,267261186.59863448
2,3, 1, 3, 0,19, 0.00,60.00,Tuesday
213,289984650.9234767
6085,289984650.92347723
2,3, 1, 3, 0,20, 0.00,60.00,Tuesday
213,275934089.2910021
6085,275934089.2910026
2,3, 1, 3, 0,21, 0.00,60.00,Tuesday
213,269156099.03683573
6085,269156099.0368362
2,3, 1, 3, 0,22, 0.00,60.00,Tuesday
213,248529977.24891025
6085,248529977.2489104
2,3, 1, 3, 0,23, 0.00,60.00,Tuesday
213,211379912.2038588
6085,211379912.20385858
2,3, 1, 3, 0,24, 0.00,60.00,Tuesday
213,181061482.1807002
6085,181061482.1807
2,4, 1, 4, 0, 1, 0.00,60.00,Wednesday
213,161247103.38493845
6085,161247103.38493842
2,4, 1, 4, 0, 2, 0.00,60.00,Wednesday
213,156344470.7542216
6085,156344470.7542214
2,4, 1, 4, 0, 3, 0.00,60.00,Wednesday
213,157296458.70703536
6085,157296458.70703518
2,4, 1, 4, 0, 4, 0.00,60.00,Wednesday
213,156286999.09787825
6085,156286999.09787816
2,4, 1, 4, 0, 5, 0.00,60.00,Wednesday
213,157801886.97883406
6085,157801886.97883385
2,4, 1, 4, 0, 6, 0.00,60.00,Wednesday
213,174814958.9308512
6085,174814958.93085098
2,4, 1, 4, 0, 7, 0.00,60.00,Wednesday
213,199745396.70247537
6085,199745396.70247513
2,4, 1, 4, 0, 8, 0.00,60.00,Wednesday
213,201911000.0803938
6085,201911000.0803936
2,4, 1, 4, 0, 9, 0.00,60.00,Wednesday
213,196383738.18489617
6085,196383738.18489596
2,4, 1, 4, 0,10, 0.00,60.00,Wednesday
213,186830430.4102612
6085,186830430.41026098
2,4, 1, 4, 0,11, 0.00,60.00,Wednesday
213,173590716.32893914
6085,173590716.32893896
2,4, 1, 4, 0,12, 0.00,60.00,Wednesday
213,172626785.2378377
6085,172626785.2378375
2,4, 1, 4, 0,13, 0.00,60.00,Wednesday
213,169274549.9778355
6085,169274549.9778353
2,4, 1, 4, 0,14, 0.00,60.00,Wednesday
213,165862289.23986116
6085,165862289.23986095
2,4, 1, 4, 0,15, 0.00,60.00,Wednesday
213,164699803.1278172
6085,164699803.12781703
2,4, 1, 4, 0,16, 0.00,60.00,Wednesday
213,173456335.6639828
6085,173456335.66398257
2,4, 1, 4, 0,17, 0.00,60.00,Wednesday
213,210666298.10749298
6085,210666298.10749283
2,4, 1, 4, 0,18, 0.00,60.00,Wednesday
213,266282936.71076226
6085,266282936.71076277
2,4, 1, 4, 0,19, 0.00,60.00,Wednesday
213,289745675.582818
6085,289745675.5828184
2,4, 1, 4, 0,20, 0.00,60.00,Wednesday
213,274909044.0860642
6085,274909044.08606476
2,4, 1, 4, 0,21, 0.00,60.00,Wednesday
213,269088215.984853
6085,269088215.98485357
2,4, 1, 4, 0,22, 0.00,60.00,Wednesday
213,248856614.6607523
6085,248856614.6607525
2,4, 1, 4, 0,23, 0.00,60.00,Wednesday
213,211548599.7626511
6085,211548599.76265088
2,4, 1, 4, 0,24, 0.00,60.00,Wednesday
213,180846660.9142919
6085,180846660.91429168
2,5, 1, 5, 0, 1, 0.00,60.00,Thursday
213,159694139.94832695
6085,159694139.94832692
2,5, 1, 5, 0, 2, 0.00,60.00,Thursday
213,152610438.72308457
6085,152610438.72308433
2,5, 1, 5, 0, 3, 0.00,60.00,Thursday
213,152094667.87070522
6085,152094667.87070507
2,5, 1, 5, 0, 4, 0.00,60.00,Thursday
213,150265655.37595642
6085,150265655.37595633
2,5, 1, 5, 0, 5, 0.00,60.00,Thursday
213,151872795.15303963
6085,151872795.15303943
2,5, 1, 5, 0, 6, 0.00,60.00,Thursday
213,171059777.3094594
6085,171059777.3094592
2,5, 1, 5, 0, 7, 0.00,60.00,Thursday
213,200620017.83356148
6085,200620017.83356127
2,5, 1, 5, 0, 8, 0.00,60.00,Thursday
213,202894889.51063722
6085,202894889.51063707
2,5, 1, 5, 0, 9, 0.00,60.00,Thursday
213,191436253.41859072
6085,191436253.41859052
2,5, 1, 5, 0,10, 0.00,60.00,Thursday
213,178815451.79287606
6085,178815451.79287586
2,5, 1, 5, 0,11, 0.00,60.00,Thursday
213,168300007.97692776
6085,168300007.97692755
2,5, 1, 5, 0,12, 0.00,60.00,Thursday
213,162460766.40842736
6085,162460766.40842712
2,5, 1, 5, 0,13, 0.00,60.00,Thursday
213,155458623.11808246
6085,155458623.11808228
2,5, 1, 5, 0,14, 0.00,60.00,Thursday
213,163381855.77735463
6085,163381855.7773544
2,5, 1, 5, 0,15, 0.00,60.00,Thursday
213,162279209.4066571
6085,162279209.40665692
2,5, 1, 5, 0,16, 0.00,60.00,Thursday
213,172868752.7870178
6085,172868752.78701755
2,5, 1, 5, 0,17, 0.00,60.00,Thursday
213,211480888.76781783
6085,211480888.76781765
2,5, 1, 5, 0,18, 0.00,60.00,Thursday
213,261816882.30738533
6085,261816882.30738586
2,5, 1, 5, 0,19, 0.00,60.00,Thursday
213,287704134.06098443
6085,287704134.0609849
2,5, 1, 5, 0,20, 0.00,60.00,Thursday
213,262285742.91518643
6085,262285742.91518682
2,5, 1, 5, 0,21, 0.00,60.00,Thursday
213,255416939.62451404
6085,255416939.62451455
2,5, 1, 5, 0,22, 0.00,60.00,Thursday
213,234543058.46444806
6085,234543058.46444824
2,5, 1, 5, 0,23, 0.00,60.00,Thursday
213,203878708.71402
6085,203878708.71401978
2,5, 1, 5, 0,24, 0.00,60.00,Thursday
213,175227517.8574717
6085,175227517.85747147
2,6, 1, 6, 0, 1, 0.00,60.00,Friday
213,151727893.79085338
6085,151727893.79085332
2,6, 1, 6, 0, 2, 0.00,60.00,Friday
213,146104326.89926258
6085,146104326.89926237
2,6, 1, 6, 0, 3, 0.00,60.00,Friday
213,143253064.82498375
6085,143253064.82498372
2,6, 1, 6, 0, 4, 0.00,60.00,Friday
213,142289755.85520133
6085,142289755.8552013
2,6, 1, 6, 0, 5, 0.00,60.00,Friday
213,145963875.34443557
6085,145963875.34443542
2,6, 1, 6, 0, 6, 0.00,60.00,Friday
213,164547412.72768232
6085,164547412.7276821
2,6, 1, 6, 0, 7, 0.00,60.00,Friday
213,195386661.49637505
6085,195386661.49637485
2,6, 1, 6, 0, 8, 0.00,60.00,Friday
213,199416859.10837343
6085,199416859.10837325
2,6, 1, 6, 0, 9, 0.00,60.00,Friday
213,187505788.05905324
6085,187505788.059053
2,6, 1, 6, 0,10, 0.00,60.00,Friday
213,179996590.85397843
6085,179996590.85397816
2,6, 1, 6, 0,11, 0.00,60.00,Friday
213,188821110.78992283
6085,188821110.78992262
2,6, 1, 6, 0,12, 0.00,60.00,Friday
213,213081248.57983518
6085,213081248.579835
2,6, 1, 6, 0,13, 0.00,60.00,Friday
213,222762649.7830685
6085,222762649.78306833
2,6, 1, 6, 0,14, 0.00,60.00,Friday
213,228552733.980623
6085,228552733.98062283
2,6, 1, 6, 0,15, 0.00,60.00,Friday
213,231111323.49138585
6085,231111323.4913857
2,6, 1, 6, 0,16, 0.00,60.00,Friday
213,238666660.5569205
6085,238666660.55692032
2,6, 1, 6, 0,17, 0.00,60.00,Friday
213,266152542.91626257
6085,266152542.91626275
2,6, 1, 6, 0,18, 0.00,60.00,Friday
213,297355022.2996702
6085,297355022.2996708
2,6, 1, 6, 0,19, 0.00,60.00,Friday
213,314007815.6077439
6085,314007815.6077444
2,6, 1, 6, 0,20, 0.00,60.00,Friday
213,293346298.91925156
6085,293346298.9192521
2,6, 1, 6, 0,21, 0.00,60.00,Friday
213,282837564.8310599
6085,282837564.8310604
2,6, 1, 6, 0,22, 0.00,60.00,Friday
213,257882952.07698396
6085,257882952.0769841
2,6, 1, 6, 0,23, 0.00,60.00,Friday
213,215131604.3049303
6085,215131604.3049301
2,6, 1, 6, 0,24, 0.00,60.00,Friday
213,178910887.97523594
6085,178910887.97523567
2,7, 1, 7, 0, 1, 0.00,60.00,Saturday
213,152808995.861794
6085,152808995.86179394
2,7, 1, 7, 0, 2, 0.00,60.00,Saturday
213,146806081.47184512
6085,146806081.47184494
2,7, 1, 7, 0, 3, 0.00,60.00,Saturday
213,145171861.914872
6085,145171861.91487193
2,7, 1, 7, 0, 4, 0.00,60.00,Saturday
213,144537440.81392783
6085,144537440.8139278
2,7, 1, 7, 0, 5, 0.00,60.00,Saturday
213,148565818.02320752
6085,148565818.02320734
2,7, 1, 7, 0, 6, 0.00,60.00,Saturday
213,167924227.55847397
6085,167924227.55847377
2,7, 1, 7, 0, 7, 0.00,60.00,Saturday
213,199043380.44669423
6085,199043380.44669405
2,7, 1, 7, 0, 8, 0.00,60.00,Saturday
213,204011330.6851144
6085,204011330.68511418
2,7, 1, 7, 0, 9, 0.00,60.00,Saturday
213,191989158.21903965
6085,191989158.21903944
2,7, 1, 7, 0,10, 0.00,60.00,Saturday
213,191290091.06815234
6085,191290091.06815213
2,7, 1, 7, 0,11, 0.00,60.00,Saturday
213,193872184.27229878
6085,193872184.27229857
2,7, 1, 7, 0,12, 0.00,60.00,Saturday
213,207666123.19046152
6085,207666123.19046128
2,7, 1, 7, 0,13, 0.00,60.00,Saturday
213,216162292.31938297
6085,216162292.31938276
2,7, 1, 7, 0,14, 0.00,60.00,Saturday
213,217340339.30234557
6085,217340339.30234537
2,7, 1, 7, 0,15, 0.00,60.00,Saturday
213,219663443.76055795
6085,219663443.76055777
2,7, 1, 7, 0,16, 0.00,60.00,Saturday
213,225487930.0683724
6085,225487930.06837228
2,7, 1, 7, 0,17, 0.00,60.00,Saturday
213,263450271.18484718
6085,263450271.18484735
2,7, 1, 7, 0,18, 0.00,60.00,Saturday
213,304368188.4221484
6085,304368188.42214894
2,7, 1, 7, 0,19, 0.00,60.00,Saturday
213,318996763.8245052
6085,318996763.82450575
2,7, 1, 7, 0,20, 0.00,60.00,Saturday
213,298703921.160949
6085,298703921.16094947
2,7, 1, 7, 0,21, 0.00,60.00,Saturday
213,287886264.1288364
6085,287886264.1288368
2,7, 1, 7, 0,22, 0.00,60.00,Saturday
213,262839545.1753965
6085,262839545.1753966
2,7, 1, 7, 0,23, 0.00,60.00,Saturday
213,219422878.27072585
6085,219422878.27072567
2,7, 1, 7, 0,24, 0.00,60.00,Saturday
213,181773319.19876018
6085,181773319.19875997
2,8, 1, 8, 0, 1, 0.00,60.00,Sunday
213,154543021.51731884
6085,154543021.51731876
2,8, 1, 8, 0, 2, 0.00,60.00,Sunday
213,147477895.50183797
6085,147477895.5018378
2,8, 1, 8, 0, 3, 0.00,60.00,Sunday
213,144109048.1350734
6085,144109048.13507336
2,8, 1, 8, 0, 4, 0.00,60.00,Sunday
213,142664528.48474112
6085,142664528.4847411
2,8, 1, 8, 0, 5, 0.00,60.00,Sunday
213,146416562.8471672
6085,146416562.847167
2,8, 1, 8, 0, 6, 0.00,60.00,Sunday
213,165767320.94453266
6085,165767320.94453245
2,8, 1, 8, 0, 7, 0.00,60.00,Sunday
213,198966127.67462662
6085,198966127.67462638
2,8, 1, 8, 0, 8, 0.00,60.00,Sunday
213,204407234.1329475
6085,204407234.1329473
2,8, 1, 8, 0, 9, 0.00,60.00,Sunday
213,197599904.78372765
6085,197599904.78372747
2,8, 1, 8, 0,10, 0.00,60.00,Sunday
213,205934320.46214792
6085,205934320.4621477
2,8, 1, 8, 0,11, 0.00,60.00,Sunday
213,220550376.1385385
6085,220550376.1385383
2,8, 1, 8, 0,12, 0.00,60.00,Sunday
213,240629082.20980704
6085,240629082.20980686
2,8, 1, 8, 0,13, 0.00,60.00,Sunday
213,249605496.59923217
6085,249605496.59923208
2,8, 1, 8, 0,14, 0.00,60.00,Sunday
213,251542322.6834361
6085,251542322.68343592
2,8, 1, 8, 0,15, 0.00,60.00,Sunday
213,255470587.31482616
6085,255470587.31482595
2,8, 1, 8, 0,16, 0.00,60.00,Sunday
213,258199783.18856677
6085,258199783.18856665
2,8, 1, 8, 0,17, 0.00,60.00,Sunday
213,291486820.33932775
6085,291486820.33932793
2,8, 1, 8, 0,18, 0.00,60.00,Sunday
213,329297620.45834947
6085,329297620.45834994
2,8, 1, 8, 0,19, 0.00,60.00,Sunday
213,338963780.04526955
6085,338963780.04526997
2,8, 1, 8, 0,20, 0.00,60.00,Sunday
213,315735945.0053805
6085,315735945.0053809
2,8, 1, 8, 0,21, 0.00,60.00,Sunday
213,301903819.8379065
6085,301903819.83790696
2,8, 1, 8, 0,22, 0.00,60.00,Sunday
213,274805186.0799874
6085,274805186.07998747
2,8, 1, 8, 0,23, 0.00,60.00,Sunday
213,229242439.1342389
6085,229242439.13423866
2,8, 1, 8, 0,24, 0.00,60.00,Sunday
213,188687737.1080208
6085,188687737.10802063
2,9, 1, 9, 0, 1, 0.00,60.00,Monday
213,158700954.62207353
6085,158700954.62207344
2,9, 1, 9, 0, 2, 0.00,60.00,Monday
213,149825466.68136263
6085,149825466.6813624
2,9, 1, 9, 0, 3, 0.00,60.00,Monday
213,146174488.67405117
6085,146174488.67405105
2,9, 1, 9, 0, 4, 0.00,60.00,Monday
213,144645601.68718952
6085,144645601.6871895
2,9, 1, 9, 0, 5, 0.00,60.00,Monday
213,147952410.9035185
6085,147952410.90351832
2,9, 1, 9, 0, 6, 0.00,60.00,Monday
213,167534741.1995866
6085,167534741.19958642
2,9, 1, 9, 0, 7, 0.00,60.00,Monday
213,200783217.13894445
6085,200783217.1389442
2,9, 1, 9, 0, 8, 0.00,60.00,Monday
213,206795940.20741838
6085,206795940.20741823
2,9, 1, 9, 0, 9, 0.00,60.00,Monday
213,199094174.0530386
6085,199094174.0530384
2,9, 1, 9, 0,10, 0.00,60.00,Monday
213,209363143.90759093
6085,209363143.90759075
2,9, 1, 9, 0,11, 0.00,60.00,Monday
213,225783863.49648863
6085,225783863.49648845
2,9, 1, 9, 0,12, 0.00,60.00,Monday
213,254408159.378618
6085,254408159.3786178
2,9, 1, 9, 0,13, 0.00,60.00,Monday
213,268041386.45627746
6085,268041386.4562773
2,9, 1, 9, 0,14, 0.00,60.00,Monday
213,277175845.8033865
6085,277175845.8033864
2,9, 1, 9, 0,15, 0.00,60.00,Monday
213,283254105.6280819
6085,283254105.62808174
2,9, 1, 9, 0,16, 0.00,60.00,Monday
213,292568397.30216855
6085,292568397.30216837
2,9, 1, 9, 0,17, 0.00,60.00,Monday
213,318652794.5544579
6085,318652794.5544581
2,9, 1, 9, 0,18, 0.00,60.00,Monday
213,342894535.2649934
6085,342894535.26499385
2,9, 1, 9, 0,19, 0.00,60.00,Monday
213,352169392.0742075
6085,352169392.074208
2,9, 1, 9, 0,20, 0.00,60.00,Monday
213,325107802.06162524
6085,325107802.0616257
2,9, 1, 9, 0,21, 0.00,60.00,Monday
213,309873839.3115504
6085,309873839.31155086
2,9, 1, 9, 0,22, 0.00,60.00,Monday
213,282299434.0751793
6085,282299434.0751794
2,9, 1, 9, 0,23, 0.00,60.00,Monday
213,235563891.4577774
6085,235563891.45777723
2,9, 1, 9, 0,24, 0.00,60.00,Monday
213,192166917.32091552
6085,192166917.32091528
2,10, 1,10, 0, 1, 0.00,60.00,Tuesday
213,160600726.41756263
6085,160600726.41756254
2,10, 1,10, 0, 2, 0.00,60.00,Tuesday
213,151877866.4045512
6085,151877866.40455097
2,10, 1,10, 0, 3, 0.00,60.00,Tuesday
213,148083902.33050233
6085,148083902.33050224
2,10, 1,10, 0, 4, 0.00,60.00,Tuesday
213,146240781.7330016
6085,146240781.73300156
2,10, 1,10, 0, 5, 0.00,60.00,Tuesday
213,149275312.17853096
6085,149275312.17853075
2,10, 1,10, 0, 6, 0.00,60.00,Tuesday
213,168569864.32713354
6085,168569864.32713336
2,10, 1,10, 0, 7, 0.00,60.00,Tuesday
213,201745119.62741154
6085,201745119.62741143
2,10, 1,10, 0, 8, 0.00,60.00,Tuesday
213,208045777.1035411
6085,208045777.1035409
2,10, 1,10, 0, 9, 0.00,60.00,Tuesday
213,200572544.30716938
6085,200572544.30716914
2,10, 1,10, 0,10, 0.00,60.00,Tuesday
213,210791082.13073468
6085,210791082.13073456
2,10, 1,10, 0,11, 0.00,60.00,Tuesday
213,232090682.43291488
6085,232090682.43291476
2,10, 1,10, 0,12, 0.00,60.00,Tuesday
213,261330145.0553263
6085,261330145.05532613
2,10, 1,10, 0,13, 0.00,60.00,Tuesday
213,273012585.6506386
6085,273012585.6506384
2,10, 1,10, 0,14, 0.00,60.00,Tuesday
213,280836785.0396431
6085,280836785.03964293
2,10, 1,10, 0,15, 0.00,60.00,Tuesday
213,200846500.050657
6085,200846500.05065686
2,10, 1,10, 0,16, 0.00,60.00,Tuesday
213,157768462.17884707
6085,157768462.17884687
2,10, 1,10, 0,17, 0.00,60.00,Tuesday
213,196153021.05985564
6085,196153021.0598554
2,10, 1,10, 0,18, 0.00,60.00,Tuesday
213,251759367.59837508
6085,251759367.59837556
2,10, 1,10, 0,19, 0.00,60.00,Tuesday
213,276653459.10599756
6085,276653459.105998
2,10, 1,10, 0,20, 0.00,60.00,Tuesday
213,321624986.2003223
6085,321624986.2003228
2,10, 1,10, 0,21, 0.00,60.00,Tuesday
213,321938554.2513734
6085,321938554.25137377
2,10, 1,10, 0,22, 0.00,60.00,Tuesday
213,291759244.6091014
6085,291759244.6091016
2,10, 1,10, 0,23, 0.00,60.00,Tuesday
213,244084438.51720563
6085,244084438.51720536
2,10, 1,10, 0,24, 0.00,60.00,Tuesday
213,203229906.25067523
6085,203229906.25067505
2,11, 1,11, 0, 1, 0.00,60.00,Wednesday
213,171383733.89381093
6085,171383733.89381087
2,11, 1,11, 0, 2, 0.00,60.00,Wednesday
213,160862174.01333192
6085,160862174.0133317
2,11, 1,11, 0, 3, 0.00,60.00,Wednesday
213,152918985.68398482
6085,152918985.68398458
2,11, 1,11, 0, 4, 0.00,60.00,Wednesday
213,149417863.6009906
6085,149417863.60099056
2,11, 1,11, 0, 5, 0.00,60.00,Wednesday
213,153435779.38512108
6085,153435779.38512087
2,11, 1,11, 0, 6, 0.00,60.00,Wednesday
213,171320923.11664808
6085,171320923.11664787
2,11, 1,11, 0, 7, 0.00,60.00,Wednesday
213,209310603.66356197
6085,209310603.6635618
2,11, 1,11, 0, 8, 0.00,60.00,Wednesday
213,219998314.83940473
6085,219998314.83940455
2,11, 1,11, 0, 9, 0.00,60.00,Wednesday
213,199571165.09043646
6085,199571165.09043622
2,11, 1,11, 0,10, 0.00,60.00,Wednesday
213,191122048.8265387
6085,191122048.82653847
2,11, 1,11, 0,11, 0.00,60.00,Wednesday
213,186121596.3538088
6085,186121596.3538086
2,11, 1,11, 0,12, 0.00,60.00,Wednesday
213,185534170.7604068
6085,185534170.7604066
2,11, 1,11, 0,13, 0.00,60.00,Wednesday
213,183380246.36617666
6085,183380246.36617643
2,11, 1,11, 0,14, 0.00,60.00,Wednesday
213,183050605.73635447
6085,183050605.73635423
2,11, 1,11, 0,15, 0.00,60.00,Wednesday
213,173508295.89672542
6085,173508295.89672524
2,11, 1,11, 0,16, 0.00,60.00,Wednesday
213,179023774.71232736
6085,179023774.71232715
2,11, 1,11, 0,17, 0.00,60.00,Wednesday
213,220079949.7049182
6085,220079949.7049181
2,11, 1,11, 0,18, 0.00,60.00,Wednesday
213,279638636.19447416
6085,279638636.1944747
2,11, 1,11, 0,19, 0.00,60.00,Wednesday
213,311555261.71304685
6085,311555261.7130474
2,11, 1,11, 0,20, 0.00,60.00,Wednesday
213,295576043.5665728
6085,295576043.56657326
2,11, 1,11, 0,21, 0.00,60.00,Wednesday
213,287187012.7400896
6085,287187012.74009013
2,11, 1,11, 0,22, 0.00,60.00,Wednesday
213,263762171.06799343
6085,263762171.06799358
2,11, 1,11, 0,23, 0.00,60.00,Wednesday
213,220514813.99889427
6085,220514813.99889416
2,11, 1,11, 0,24, 0.00,60.00,Wednesday
213,182152644.62580648
6085,182152644.62580627
2,12, 1,12, 0, 1, 0.00,60.00,Thursday
213,155460048.52780086
6085,155460048.52780083
2,12, 1,12, 0, 2, 0.00,60.00,Thursday
213,148248848.75986457
6085,148248848.75986436
2,12, 1,12, 0, 3, 0.00,60.00,Thursday
213,144555493.41028145
6085,144555493.41028145
2,12, 1,12, 0, 4, 0.00,60.00,Thursday
213,143904426.52671167
6085,143904426.52671167
2,12, 1,12, 0, 5, 0.00,60.00,Thursday
213,147146256.78188944
6085,147146256.78188926
2,12, 1,12, 0, 6, 0.00,60.00,Thursday
213,166154590.30438635
6085,166154590.30438614
2,12, 1,12, 0, 7, 0.00,60.00,Thursday
213,198752271.5468865
6085,198752271.54688627
2,12, 1,12, 0, 8, 0.00,60.00,Thursday
213,204904658.9451255
6085,204904658.94512525
2,12, 1,12, 0, 9, 0.00,60.00,Thursday
213,191196901.4696441
6085,191196901.4696439
2,12, 1,12, 0,10, 0.00,60.00,Thursday
213,181881973.47672594
6085,181881973.47672564
2,12, 1,12, 0,11, 0.00,60.00,Thursday
213,172919635.5507967
6085,172919635.55079648
2,12, 1,12, 0,12, 0.00,60.00,Thursday
213,175117137.84154397
6085,175117137.84154373
2,12, 1,12, 0,13, 0.00,60.00,Thursday
213,172576561.84587246
6085,172576561.8458723
2,12, 1,12, 0,14, 0.00,60.00,Thursday
213,170726474.17206728
6085,170726474.1720671
2,12, 1,12, 0,15, 0.00,60.00,Thursday
213,164896707.6072382
6085,164896707.60723805
2,12, 1,12, 0,16, 0.00,60.00,Thursday
213,172731849.33282107
6085,172731849.33282086
2,12, 1,12, 0,17, 0.00,60.00,Thursday
213,212614454.4030689
6085,212614454.40306878
2,12, 1,12, 0,18, 0.00,60.00,Thursday
213,270824207.1598027
6085,270824207.1598032
2,12, 1,12, 0,19, 0.00,60.00,Thursday
213,301627573.60131556
6085,301627573.6013161
2,12, 1,12, 0,20, 0.00,60.00,Thursday
213,288074834.2056903
6085,288074834.20569074
2,12, 1,12, 0,21, 0.00,60.00,Thursday
213,278188058.13940173
6085,278188058.1394022
2,12, 1,12, 0,22, 0.00,60.00,Thursday
213,255910047.10107195
6085,255910047.1010721
2,12, 1,12, 0,23, 0.00,60.00,Thursday
213,216125347.8211426
6085,216125347.8211424
2,12, 1,12, 0,24, 0.00,60.00,Thursday
213,179992714.21554634
6085,179992714.21554613
2,13, 1,13, 0, 1, 0.00,60.00,Friday
213,155747723.05662853
6085,155747723.05662844
2,13, 1,13, 0, 2, 0.00,60.00,Friday
213,149382759.31767428
6085,149382759.31767407
2,13, 1,13, 0, 3, 0.00,60.00,Friday
213,146862925.4018585
6085,146862925.40185842
2,13, 1,13, 0, 4, 0.00,60.00,Friday
213,145423122.815311
6085,145423122.815311
2,13, 1,13, 0, 5, 0.00,60.00,Friday
213,148124615.38637173
6085,148124615.38637155
2,13, 1,13, 0, 6, 0.00,60.00,Friday
213,167174643.40196237
6085,167174643.40196216
2,13, 1,13, 0, 7, 0.00,60.00,Friday
213,198228815.65144894
6085,198228815.65144867
2,13, 1,13, 0, 8, 0.00,60.00,Friday
213,202982397.8473088
6085,202982397.84730858
2,13, 1,13, 0, 9, 0.00,60.00,Friday
213,191283483.78699782
6085,191283483.78699762
2,13, 1,13, 0,10, 0.00,60.00,Friday
213,181596317.81714845
6085,181596317.8171482
2,13, 1,13, 0,11, 0.00,60.00,Friday
213,171017272.51220983
6085,171017272.51220962
2,13, 1,13, 0,12, 0.00,60.00,Friday
213,172282792.81808326
6085,172282792.81808302
2,13, 1,13, 0,13, 0.00,60.00,Friday
213,168575597.18347067
6085,168575597.18347046
2,13, 1,13, 0,14, 0.00,60.00,Friday
213,164694215.12528035
6085,164694215.12528014
2,13, 1,13, 0,15, 0.00,60.00,Friday
213,162179801.3364096
6085,162179801.33640942
2,13, 1,13, 0,16, 0.00,60.00,Friday
213,171452739.9147665
6085,171452739.91476628
2,13, 1,13, 0,17, 0.00,60.00,Friday
213,209485313.1677574
6085,209485313.16775724
2,13, 1,13, 0,18, 0.00,60.00,Friday
213,268262236.03859958
6085,268262236.0386001
2,13, 1,13, 0,19, 0.00,60.00,Friday
213,297676723.0323942
6085,297676723.0323947
2,13, 1,13, 0,20, 0.00,60.00,Friday
213,282670759.6496706
6085,282670759.649671
2,13, 1,13, 0,21, 0.00,60.00,Friday
213,274299201.06780815
6085,274299201.0678087
2,13, 1,13, 0,22, 0.00,60.00,Friday
213,252501190.97037047
6085,252501190.97037065
2,13, 1,13, 0,23, 0.00,60.00,Friday
213,212714294.27246457
6085,212714294.2724644
2,13, 1,13, 0,24, 0.00,60.00,Friday
213,178519188.7979953
6085,178519188.7979951
2,14, 1,14, 0, 1, 0.00,60.00,Saturday
213,155686862.04035655
6085,155686862.0403565
2,14, 1,14, 0, 2, 0.00,60.00,Saturday
213,149614847.12465635
6085,149614847.1246561
2,14, 1,14, 0, 3, 0.00,60.00,Saturday
213,146940885.92866066
6085,146940885.92866057
2,14, 1,14, 0, 4, 0.00,60.00,Saturday
213,145539006.5386982
6085,145539006.53869817
2,14, 1,14, 0, 5, 0.00,60.00,Saturday
213,148495454.91805315
6085,148495454.91805297
2,14, 1,14, 0, 6, 0.00,60.00,Saturday
213,167362116.14563498
6085,167362116.14563477
2,14, 1,14, 0, 7, 0.00,60.00,Saturday
213,198221671.5190327
6085,198221671.51903248
2,14, 1,14, 0, 8, 0.00,60.00,Saturday
213,201666687.0088262
6085,201666687.008826
2,14, 1,14, 0, 9, 0.00,60.00,Saturday
213,187827964.80934158
6085,187827964.80934137
2,14, 1,14, 0,10, 0.00,60.00,Saturday
213,178600269.64841816
6085,178600269.64841795
2,14, 1,14, 0,11, 0.00,60.00,Saturday
213,169095824.1875238
6085,169095824.1875236
2,14, 1,14, 0,12, 0.00,60.00,Saturday
213,170018166.7754695
6085,170018166.77546924
2,14, 1,14, 0,13, 0.00,60.00,Saturday
213,168227186.0181518
6085,168227186.01815158
2,14, 1,14, 0,14, 0.00,60.00,Saturday
213,162086426.30258545
6085,162086426.30258527
2,14, 1,14, 0,15, 0.00,60.00,Saturday
213,161449799.4732146
6085,161449799.4732144
2,14, 1,14, 0,16, 0.00,60.00,Saturday
213,170026494.39845788
6085,170026494.39845765
2,14, 1,14, 0,17, 0.00,60.00,Saturday
213,207988264.03426796
6085,207988264.03426775
2,14, 1,14, 0,18, 0.00,60.00,Saturday
213,267364995.8818695
6085,267364995.88187
2,14, 1,14, 0,19, 0.00,60.00,Saturday
213,293005904.8438179
6085,293005904.84381837
2,14, 1,14, 0,20, 0.00,60.00,Saturday
213,278727591.57180387
6085,278727591.5718043
2,14, 1,14, 0,21, 0.00,60.00,Saturday
213,271030433.39277756
6085,271030433.39277804
2,14, 1,14, 0,22, 0.00,60.00,Saturday
213,249625165.4699503
6085,249625165.4699505
2,14, 1,14, 0,23, 0.00,60.00,Saturday
213,210931523.15163553
6085,210931523.15163535
2,14, 1,14, 0,24, 0.00,60.00,Saturday
213,178960227.65733096
6085,178960227.65733075
2,15, 1,15, 0, 1, 0.00,60.00,Sunday
213,155609398.5113017
6085,155609398.51130164
2,15, 1,15, 0, 2, 0.00,60.00,Sunday
213,149227390.04044807
6085,149227390.04044786
2,15, 1,15, 0, 3, 0.00,60.00,Sunday
213,146578800.01109588
6085,146578800.01109582
2,15, 1,15, 0, 4, 0.00,60.00,Sunday
213,145115583.70538622
6085,145115583.7053862
2,15, 1,15, 0, 5, 0.00,60.00,Sunday
213,147921776.35023135
6085,147921776.35023117
2,15, 1,15, 0, 6, 0.00,60.00,Sunday
213,166341579.34269443
6085,166341579.34269422
2,15, 1,15, 0, 7, 0.00,60.00,Sunday
213,197246920.23243248
6085,197246920.23243225
2,15, 1,15, 0, 8, 0.00,60.00,Sunday
213,201282033.953008
6085,201282033.95300782
2,15, 1,15, 0, 9, 0.00,60.00,Sunday
213,188614339.6823389
6085,188614339.68233868
2,15, 1,15, 0,10, 0.00,60.00,Sunday
213,179533221.97360083
6085,179533221.97360063
2,15, 1,15, 0,11, 0.00,60.00,Sunday
213,169403128.74963883
6085,169403128.74963862
2,15, 1,15, 0,12, 0.00,60.00,Sunday
213,170946583.51964495
6085,170946583.51964474
2,15, 1,15, 0,13, 0.00,60.00,Sunday
213,169090487.69072002
6085,169090487.6907198
2,15, 1,15, 0,14, 0.00,60.00,Sunday
213,164155046.2674188
6085,164155046.26741856
2,15, 1,15, 0,15, 0.00,60.00,Sunday
213,162615593.82149482
6085,162615593.82149464
2,15, 1,15, 0,16, 0.00,60.00,Sunday
213,170638070.70397663
6085,170638070.70397642
2,15, 1,15, 0,17, 0.00,60.00,Sunday
213,208240516.01148582
6085,208240516.01148564