Program Version,EnergyPlus, Version 26.1.0-6f2e40d102, YMD=2026.04.14 19:45
1,5,Environment Title[],Latitude[deg],Longitude[deg],Time Zone[],Elevation[m]
2,8,Day of Simulation[],Month[],Day of Month[],DST Indicator[1=yes 0=no],Hour[],StartMinute[],EndMinute[],DayType
3,5,Cumulative Day of Simulation[],Month[],Day of Month[],DST Indicator[1=yes 0=no],DayType  ! When Daily Meters Requested
4,2,Cumulative Days of Simulation[],Month[]  ! When Monthly Meters Requested
5,1,Cumulative Days of Simulation[] ! When Run Period Meters Requested
6,1,Calendar Year of Simulation[] ! When Annual Meters Requested
213,1,Electricity:Facility [J] !Hourly
5925,1,ElectricityNet:Facility [J] !Hourly
End of Data Dictionary
1,RUNPERIOD 1,  28.11, 112.79,   8.00, 120.00
2,1, 1, 1, 0, 1, 0.00,60.00,Sunday
213,96888143.86300525
5925,96888143.86300525
2,1, 1, 1, 0, 2, 0.00,60.00,Sunday
213,100454152.34120673
5925,100454152.34120671
2,1, 1, 1, 0, 3, 0.00,60.00,Sunday
213,105411117.67132257
5925,105411117.67132257
2,1, 1, 1, 0, 4, 0.00,60.00,Sunday
213,98771150.97668505
5925,98771150.97668505
2,1, 1, 1, 0, 5, 0.00,60.00,Sunday
213,108737870.85254902
5925,108737870.85254902
2,1, 1, 1, 0, 6, 0.00,60.00,Sunday
213,135422812.03465343
5925,135422812.03465346
2,1, 1, 1, 0, 7, 0.00,60.00,Sunday
213,200648147.8273299
5925,200648147.82732987
2,1, 1, 1, 0, 8, 0.00,60.00,Sunday
213,204438497.80828774
5925,204438497.80828786
2,1, 1, 1, 0, 9, 0.00,60.00,Sunday
213,184446440.88582778
5925,184446440.88582778
2,1, 1, 1, 0,10, 0.00,60.00,Sunday
213,164853018.10507324
5925,164853018.1050732
2,1, 1, 1, 0,11, 0.00,60.00,Sunday
213,165680763.0116632
5925,165680763.01166317
2,1, 1, 1, 0,12, 0.00,60.00,Sunday
213,147730014.81211025
5925,147730014.81211028
2,1, 1, 1, 0,13, 0.00,60.00,Sunday
213,136817022.81319624
5925,136817022.81319624
2,1, 1, 1, 0,14, 0.00,60.00,Sunday
213,141940812.0212483
5925,141940812.0212483
2,1, 1, 1, 0,15, 0.00,60.00,Sunday
213,121658333.96517949
5925,121658333.96517946
2,1, 1, 1, 0,16, 0.00,60.00,Sunday
213,147668372.30705714
5925,147668372.30705717
2,1, 1, 1, 0,17, 0.00,60.00,Sunday
213,167295491.79583552
5925,167295491.79583567
2,1, 1, 1, 0,18, 0.00,60.00,Sunday
213,207946607.4800418
5925,207946607.48004213
2,1, 1, 1, 0,19, 0.00,60.00,Sunday
213,245911646.3919286
5925,245911646.39192897
2,1, 1, 1, 0,20, 0.00,60.00,Sunday
213,229486404.58684546
5925,229486404.58684582
2,1, 1, 1, 0,21, 0.00,60.00,Sunday
213,232597862.02253246
5925,232597862.02253273
2,1, 1, 1, 0,22, 0.00,60.00,Sunday
213,203427882.18046942
5925,203427882.1804696
2,1, 1, 1, 0,23, 0.00,60.00,Sunday
213,174328703.53225258
5925,174328703.53225255
2,1, 1, 1, 0,24, 0.00,60.00,Sunday
213,136384954.0757062
5925,136384954.0757062
2,2, 1, 2, 0, 1, 0.00,60.00,Holiday
213,104706510.56447756
5925,104706510.56447755
2,2, 1, 2, 0, 2, 0.00,60.00,Holiday
213,107710555.24066606
5925,107710555.24066606
2,2, 1, 2, 0, 3, 0.00,60.00,Holiday
213,99343650.25484207
5925,99343650.25484207
2,2, 1, 2, 0, 4, 0.00,60.00,Holiday
213,93658785.29500678
5925,93658785.29500677
2,2, 1, 2, 0, 5, 0.00,60.00,Holiday
213,109722691.68465267
5925,109722691.68465266
2,2, 1, 2, 0, 6, 0.00,60.00,Holiday
213,136422953.8671732
5925,136422953.86717322
2,2, 1, 2, 0, 7, 0.00,60.00,Holiday
213,202369492.4785877
5925,202369492.4785877
2,2, 1, 2, 0, 8, 0.00,60.00,Holiday
213,206455501.77938107
5925,206455501.77938122
2,2, 1, 2, 0, 9, 0.00,60.00,Holiday
213,186015080.4716576
5925,186015080.4716576
2,2, 1, 2, 0,10, 0.00,60.00,Holiday
213,166321458.07011732
5925,166321458.0701173
2,2, 1, 2, 0,11, 0.00,60.00,Holiday
213,167425419.1675096
5925,167425419.16750956
2,2, 1, 2, 0,12, 0.00,60.00,Holiday
213,153891423.6785815
5925,153891423.67858148
2,2, 1, 2, 0,13, 0.00,60.00,Holiday
213,145627352.50846565
5925,145627352.50846565
2,2, 1, 2, 0,14, 0.00,60.00,Holiday
213,130201804.36365044
5925,130201804.36365047
2,2, 1, 2, 0,15, 0.00,60.00,Holiday
213,135036901.2616634
5925,135036901.26166338
2,2, 1, 2, 0,16, 0.00,60.00,Holiday
213,133682830.52935101
5925,133682830.529351
2,2, 1, 2, 0,17, 0.00,60.00,Holiday
213,174876895.1102881
5925,174876895.1102883
2,2, 1, 2, 0,18, 0.00,60.00,Holiday
213,205121014.74188972
5925,205121014.74189007
2,2, 1, 2, 0,19, 0.00,60.00,Holiday
213,246989086.19844797
5925,246989086.1984483
2,2, 1, 2, 0,20, 0.00,60.00,Holiday
213,237140725.56400278
5925,237140725.56400305
2,2, 1, 2, 0,21, 0.00,60.00,Holiday
213,223609429.862568
5925,223609429.86256835
2,2, 1, 2, 0,22, 0.00,60.00,Holiday
213,201102546.2233141
5925,201102546.22331432
2,2, 1, 2, 0,23, 0.00,60.00,Holiday
213,175316438.07870457
5925,175316438.07870457
2,2, 1, 2, 0,24, 0.00,60.00,Holiday
213,137407673.22540608
5925,137407673.22540605
2,3, 1, 3, 0, 1, 0.00,60.00,Tuesday
213,118855830.08803108
5925,118855830.08803107
2,3, 1, 3, 0, 2, 0.00,60.00,Tuesday
213,102765008.72195396
5925,102765008.72195396
2,3, 1, 3, 0, 3, 0.00,60.00,Tuesday
213,94508504.47992976
5925,94508504.47992978
2,3, 1, 3, 0, 4, 0.00,60.00,Tuesday
213,106990230.45258528
5925,106990230.45258528
2,3, 1, 3, 0, 5, 0.00,60.00,Tuesday
213,104840336.81883645
5925,104840336.81883644
2,3, 1, 3, 0, 6, 0.00,60.00,Tuesday
213,138200526.15512028
5925,138200526.15512028
2,3, 1, 3, 0, 7, 0.00,60.00,Tuesday
213,203703721.99212542
5925,203703721.99212542
2,3, 1, 3, 0, 8, 0.00,60.00,Tuesday
213,200093565.01620895
5925,200093565.0162091
2,3, 1, 3, 0, 9, 0.00,60.00,Tuesday
213,198906618.0796493
5925,198906618.07964942
2,3, 1, 3, 0,10, 0.00,60.00,Tuesday
213,177286644.0621162
5925,177286644.0621162
2,3, 1, 3, 0,11, 0.00,60.00,Tuesday
213,166589738.44298786
5925,166589738.44298786
2,3, 1, 3, 0,12, 0.00,60.00,Tuesday
213,151759742.34307095
5925,151759742.34307098
2,3, 1, 3, 0,13, 0.00,60.00,Tuesday
213,150122212.9088782
5925,150122212.9088782
2,3, 1, 3, 0,14, 0.00,60.00,Tuesday
213,135193826.71486506
5925,135193826.71486506
2,3, 1, 3, 0,15, 0.00,60.00,Tuesday
213,147886838.263573
5925,147886838.263573
2,3, 1, 3, 0,16, 0.00,60.00,Tuesday
213,152982928.0790627
5925,152982928.0790627
2,3, 1, 3, 0,17, 0.00,60.00,Tuesday
213,160163015.12847745
5925,160163015.12847766
2,3, 1, 3, 0,18, 0.00,60.00,Tuesday
213,220862532.65600878
5925,220862532.65600905
2,3, 1, 3, 0,19, 0.00,60.00,Tuesday
213,234555966.32938063
5925,234555966.329381
2,3, 1, 3, 0,20, 0.00,60.00,Tuesday
213,245412616.8327714
5925,245412616.8327717
2,3, 1, 3, 0,21, 0.00,60.00,Tuesday
213,221047092.72951502
5925,221047092.72951537
2,3, 1, 3, 0,22, 0.00,60.00,Tuesday
213,204966789.3579273
5925,204966789.35792756
2,3, 1, 3, 0,23, 0.00,60.00,Tuesday
213,175730526.63446534
5925,175730526.63446534
2,3, 1, 3, 0,24, 0.00,60.00,Tuesday
213,137170246.43687594
5925,137170246.43687594
2,4, 1, 4, 0, 1, 0.00,60.00,Wednesday
213,111599535.34538627
5925,111599535.34538625
2,4, 1, 4, 0, 2, 0.00,60.00,Wednesday
213,102991189.98603456
5925,102991189.98603456
2,4, 1, 4, 0, 3, 0.00,60.00,Wednesday
213,108379604.6110661
5925,108379604.6110661
2,4, 1, 4, 0, 4, 0.00,60.00,Wednesday
213,101672030.93651591
5925,101672030.93651588
2,4, 1, 4, 0, 5, 0.00,60.00,Wednesday
213,98189674.71060136
5925,98189674.71060134
2,4, 1, 4, 0, 6, 0.00,60.00,Wednesday
213,138382387.39379346
5925,138382387.39379346
2,4, 1, 4, 0, 7, 0.00,60.00,Wednesday
213,203684558.7433949
5925,203684558.7433949
2,4, 1, 4, 0, 8, 0.00,60.00,Wednesday
213,208005166.81592774
5925,208005166.81592792
2,4, 1, 4, 0, 9, 0.00,60.00,Wednesday
213,191805426.00528473
5925,191805426.00528485
2,4, 1, 4, 0,10, 0.00,60.00,Wednesday
213,185242286.95945817
5925,185242286.95945817
2,4, 1, 4, 0,11, 0.00,60.00,Wednesday
213,158348167.60007587
5925,158348167.60007587
2,4, 1, 4, 0,12, 0.00,60.00,Wednesday
213,156565251.66529858
5925,156565251.66529858
2,4, 1, 4, 0,13, 0.00,60.00,Wednesday
213,146655471.19090864
5925,146655471.19090864
2,4, 1, 4, 0,14, 0.00,60.00,Wednesday
213,144964049.2215068
5925,144964049.2215068
2,4, 1, 4, 0,15, 0.00,60.00,Wednesday
213,124883839.32134014
5925,124883839.32134014
2,4, 1, 4, 0,16, 0.00,60.00,Wednesday
213,150523993.10631594
5925,150523993.1063159
2,4, 1, 4, 0,17, 0.00,60.00,Wednesday
213,177785422.89951497
5925,177785422.89951515
2,4, 1, 4, 0,18, 0.00,60.00,Wednesday
213,204931784.58829483
5925,204931784.5882952
2,4, 1, 4, 0,19, 0.00,60.00,Wednesday
213,245834659.78705668
5925,245834659.78705695
2,4, 1, 4, 0,20, 0.00,60.00,Wednesday
213,221454325.86250943
5925,221454325.8625097
2,4, 1, 4, 0,21, 0.00,60.00,Wednesday
213,238483667.03566605
5925,238483667.0356664
2,4, 1, 4, 0,22, 0.00,60.00,Wednesday
213,197600631.2225647
5925,197600631.22256494
2,4, 1, 4, 0,23, 0.00,60.00,Wednesday
213,160438834.60322833
5925,160438834.6032283
2,4, 1, 4, 0,24, 0.00,60.00,Wednesday
213,149052545.5913882
5925,149052545.59138823
2,5, 1, 5, 0, 1, 0.00,60.00,Thursday
213,104241417.68875381
5925,104241417.6887538
2,5, 1, 5, 0, 2, 0.00,60.00,Thursday
213,114260006.53928453
5925,114260006.53928453
2,5, 1, 5, 0, 3, 0.00,60.00,Thursday
213,92998734.93402357
5925,92998734.93402359
2,5, 1, 5, 0, 4, 0.00,60.00,Thursday
213,92247287.3725781
5925,92247287.3725781
2,5, 1, 5, 0, 5, 0.00,60.00,Thursday
213,115805853.69772579
5925,115805853.69772579
2,5, 1, 5, 0, 6, 0.00,60.00,Thursday
213,136197433.737346
5925,136197433.737346
2,5, 1, 5, 0, 7, 0.00,60.00,Thursday
213,202520266.36811456
5925,202520266.36811462
2,5, 1, 5, 0, 8, 0.00,60.00,Thursday
213,199336248.00350612
5925,199336248.0035062
2,5, 1, 5, 0, 9, 0.00,60.00,Thursday
213,197215332.99644446
5925,197215332.99644452
2,5, 1, 5, 0,10, 0.00,60.00,Thursday
213,160210766.77909574
5925,160210766.77909574
2,5, 1, 5, 0,11, 0.00,60.00,Thursday
213,174787599.0866542
5925,174787599.0866542
2,5, 1, 5, 0,12, 0.00,60.00,Thursday
213,145212149.0169692
5925,145212149.0169692
2,5, 1, 5, 0,13, 0.00,60.00,Thursday
213,136991917.56883284
5925,136991917.56883287
2,5, 1, 5, 0,14, 0.00,60.00,Thursday
213,133398221.46003406
5925,133398221.46003404
2,5, 1, 5, 0,15, 0.00,60.00,Thursday
213,138989588.58010393
5925,138989588.5801039
2,5, 1, 5, 0,16, 0.00,60.00,Thursday
213,130409496.64241616
5925,130409496.64241615
2,5, 1, 5, 0,17, 0.00,60.00,Thursday
213,165030667.99593675
5925,165030667.99593693
2,5, 1, 5, 0,18, 0.00,60.00,Thursday
213,200821378.30538413
5925,200821378.30538443
2,5, 1, 5, 0,19, 0.00,60.00,Thursday
213,242928948.51458973
5925,242928948.51459008
2,5, 1, 5, 0,20, 0.00,60.00,Thursday
213,240478667.38405198
5925,240478667.38405234
2,5, 1, 5, 0,21, 0.00,60.00,Thursday
213,216689341.58608234
5925,216689341.58608258
2,5, 1, 5, 0,22, 0.00,60.00,Thursday
213,201028377.56964043
5925,201028377.56964064
2,5, 1, 5, 0,23, 0.00,60.00,Thursday
213,171804223.1955045
5925,171804223.1955045
2,5, 1, 5, 0,24, 0.00,60.00,Thursday
213,133043867.1876272
5925,133043867.18762718
2,6, 1, 6, 0, 1, 0.00,60.00,Friday
213,108159144.43893991
5925,108159144.43893988
2,6, 1, 6, 0, 2, 0.00,60.00,Friday
213,98232199.10706493
5925,98232199.10706495
2,6, 1, 6, 0, 3, 0.00,60.00,Friday
213,97924493.92450862
5925,97924493.92450862
2,6, 1, 6, 0, 4, 0.00,60.00,Friday
213,103519646.41103649
5925,103519646.41103648
2,6, 1, 6, 0, 5, 0.00,60.00,Friday
213,100251488.70083712
5925,100251488.70083712
2,6, 1, 6, 0, 6, 0.00,60.00,Friday
213,127940838.22403643
5925,127940838.22403644
2,6, 1, 6, 0, 7, 0.00,60.00,Friday
213,205387597.8532393
5925,205387597.85323924
2,6, 1, 6, 0, 8, 0.00,60.00,Friday
213,198309546.70799327
5925,198309546.70799336
2,6, 1, 6, 0, 9, 0.00,60.00,Friday
213,186180838.471921
5925,186180838.47192097
2,6, 1, 6, 0,10, 0.00,60.00,Friday
213,177217486.71572703
5925,177217486.715727
2,6, 1, 6, 0,11, 0.00,60.00,Friday
213,148441145.41979375
5925,148441145.41979375
2,6, 1, 6, 0,12, 0.00,60.00,Friday
213,146174680.50299814
5925,146174680.50299814
2,6, 1, 6, 0,13, 0.00,60.00,Friday
213,135772162.98991346
5925,135772162.98991346
2,6, 1, 6, 0,14, 0.00,60.00,Friday
213,119705726.98327616
5925,119705726.98327616
2,6, 1, 6, 0,15, 0.00,60.00,Friday
213,131312467.3868961
5925,131312467.38689609
2,6, 1, 6, 0,16, 0.00,60.00,Friday
213,136549988.89373833
5925,136549988.89373833
2,6, 1, 6, 0,17, 0.00,60.00,Friday
213,145336220.58660236
5925,145336220.5866025
2,6, 1, 6, 0,18, 0.00,60.00,Friday
213,209307217.95041272
5925,209307217.95041302
2,6, 1, 6, 0,19, 0.00,60.00,Friday
213,226026781.77582213
5925,226026781.77582246
2,6, 1, 6, 0,20, 0.00,60.00,Friday
213,237734906.1699897
5925,237734906.16999
2,6, 1, 6, 0,21, 0.00,60.00,Friday
213,214059037.3943013
5925,214059037.3943016
2,6, 1, 6, 0,22, 0.00,60.00,Friday
213,192066345.93053174
5925,192066345.93053195
2,6, 1, 6, 0,23, 0.00,60.00,Friday
213,178746456.92809722
5925,178746456.92809725
2,6, 1, 6, 0,24, 0.00,60.00,Friday
213,133921539.41179831
5925,133921539.41179831
2,7, 1, 7, 0, 1, 0.00,60.00,Saturday
213,109838216.21926151
5925,109838216.21926151
2,7, 1, 7, 0, 2, 0.00,60.00,Saturday
213,102448277.72486933
5925,102448277.72486934
2,7, 1, 7, 0, 3, 0.00,60.00,Saturday
213,107711413.41877933
5925,107711413.41877934
2,7, 1, 7, 0, 4, 0.00,60.00,Saturday
213,101115004.86566627
5925,101115004.8656663
2,7, 1, 7, 0, 5, 0.00,60.00,Saturday
213,98197417.88531819
5925,98197417.88531817
2,7, 1, 7, 0, 6, 0.00,60.00,Saturday
213,151718046.177343
5925,151718046.177343
2,7, 1, 7, 0, 7, 0.00,60.00,Saturday
213,190544113.1462657
5925,190544113.1462657
2,7, 1, 7, 0, 8, 0.00,60.00,Saturday
213,214879048.3921904
5925,214879048.39219052
2,7, 1, 7, 0, 9, 0.00,60.00,Saturday
213,179201645.8662781
5925,179201645.86627808
2,7, 1, 7, 0,10, 0.00,60.00,Saturday
213,177627121.72541928
5925,177627121.72541928
2,7, 1, 7, 0,11, 0.00,60.00,Saturday
213,151673736.1520161
5925,151673736.1520161
2,7, 1, 7, 0,12, 0.00,60.00,Saturday
213,151143120.1689846
5925,151143120.16898456
2,7, 1, 7, 0,13, 0.00,60.00,Saturday
213,128080839.4825877
5925,128080839.48258768
2,7, 1, 7, 0,14, 0.00,60.00,Saturday
213,133344925.19091414
5925,133344925.19091414
2,7, 1, 7, 0,15, 0.00,60.00,Saturday
213,110986687.67504504
5925,110986687.67504504
2,7, 1, 7, 0,16, 0.00,60.00,Saturday
213,136665838.09845576
5925,136665838.0984558
2,7, 1, 7, 0,17, 0.00,60.00,Saturday
213,165992645.79776698
5925,165992645.797767
2,7, 1, 7, 0,18, 0.00,60.00,Saturday
213,198645451.88125294
5925,198645451.8812533
2,7, 1, 7, 0,19, 0.00,60.00,Saturday
213,241376337.92754495
5925,241376337.92754522
2,7, 1, 7, 0,20, 0.00,60.00,Saturday
213,219127701.1649886
5925,219127701.16498893
2,7, 1, 7, 0,21, 0.00,60.00,Saturday
213,235817738.40572786
5925,235817738.40572825
2,7, 1, 7, 0,22, 0.00,60.00,Saturday
213,193234288.4991938
5925,193234288.49919397
2,7, 1, 7, 0,23, 0.00,60.00,Saturday
213,172137043.67566103
5925,172137043.67566097
2,7, 1, 7, 0,24, 0.00,60.00,Saturday
213,134146525.24369532
5925,134146525.24369532
2,8, 1, 8, 0, 1, 0.00,60.00,Sunday
213,102994806.41440195
5925,102994806.41440192
2,8, 1, 8, 0, 2, 0.00,60.00,Sunday
213,114236839.94584635
5925,114236839.94584635
2,8, 1, 8, 0, 3, 0.00,60.00,Sunday
213,93667168.86917934
5925,93667168.86917935
2,8, 1, 8, 0, 4, 0.00,60.00,Sunday
213,93455465.99164996
5925,93455465.99164994
2,8, 1, 8, 0, 5, 0.00,60.00,Sunday
213,117598570.17364474
5925,117598570.17364472
2,8, 1, 8, 0, 6, 0.00,60.00,Sunday
213,137477665.0983284
5925,137477665.0983284
2,8, 1, 8, 0, 7, 0.00,60.00,Sunday
213,203441130.15583432
5925,203441130.1558343
2,8, 1, 8, 0, 8, 0.00,60.00,Sunday
213,205036146.5156225
5925,205036146.51562268
2,8, 1, 8, 0, 9, 0.00,60.00,Sunday
213,188450714.45355564
5925,188450714.45355564
2,8, 1, 8, 0,10, 0.00,60.00,Sunday
213,175130203.97603527
5925,175130203.9760352
2,8, 1, 8, 0,11, 0.00,60.00,Sunday
213,147568345.94155723
5925,147568345.94155723
2,8, 1, 8, 0,12, 0.00,60.00,Sunday
213,142588861.22329774
5925,142588861.22329777
2,8, 1, 8, 0,13, 0.00,60.00,Sunday
213,132485933.91233909
5925,132485933.91233909
2,8, 1, 8, 0,14, 0.00,60.00,Sunday
213,115868068.34333092
5925,115868068.3433309
2,8, 1, 8, 0,15, 0.00,60.00,Sunday
213,120358907.1198861
5925,120358907.1198861
2,8, 1, 8, 0,16, 0.00,60.00,Sunday
213,123421238.96815889
5925,123421238.9681589
2,8, 1, 8, 0,17, 0.00,60.00,Sunday
213,151708737.4783655
5925,151708737.47836554
2,8, 1, 8, 0,18, 0.00,60.00,Sunday
213,216536812.82044718
5925,216536812.82044753
2,8, 1, 8, 0,19, 0.00,60.00,Sunday
213,217514293.36087906
5925,217514293.3608794
2,8, 1, 8, 0,20, 0.00,60.00,Sunday
213,236845699.50195253
5925,236845699.5019529
2,8, 1, 8, 0,21, 0.00,60.00,Sunday
213,213853401.4445517
5925,213853401.44455206
2,8, 1, 8, 0,22, 0.00,60.00,Sunday
213,199091573.048488
5925,199091573.04848814
2,8, 1, 8, 0,23, 0.00,60.00,Sunday
213,170713129.91416016
5925,170713129.91416016
2,8, 1, 8, 0,24, 0.00,60.00,Sunday
213,132890092.70747226
5925,132890092.70747226
2,9, 1, 9, 0, 1, 0.00,60.00,Monday
213,115128165.4923006
5925,115128165.4923006
2,9, 1, 9, 0, 2, 0.00,60.00,Monday
213,94073290.43066226
5925,94073290.43066226
2,9, 1, 9, 0, 3, 0.00,60.00,Monday
213,113462400.7062628
5925,113462400.7062628
2,9, 1, 9, 0, 4, 0.00,60.00,Monday
213,92691621.4054073
5925,92691621.4054073
2,9, 1, 9, 0, 5, 0.00,60.00,Monday
213,104598389.52375898
5925,104598389.52375899
2,9, 1, 9, 0, 6, 0.00,60.00,Monday
213,138153359.24182123
5925,138153359.24182123
2,9, 1, 9, 0, 7, 0.00,60.00,Monday
213,204586238.72089484
5925,204586238.72089487
2,9, 1, 9, 0, 8, 0.00,60.00,Monday
213,201811382.06834248
5925,201811382.06834257
2,9, 1, 9, 0, 9, 0.00,60.00,Monday
213,198379881.4063185
5925,198379881.40631866
2,9, 1, 9, 0,10, 0.00,60.00,Monday
213,173485736.91854745
5925,173485736.91854748
2,9, 1, 9, 0,11, 0.00,60.00,Monday
213,158203518.69542685
5925,158203518.69542688
2,9, 1, 9, 0,12, 0.00,60.00,Monday
213,137724969.3582853
5925,137724969.35828534
2,9, 1, 9, 0,13, 0.00,60.00,Monday
213,140466045.32642236
5925,140466045.32642236
2,9, 1, 9, 0,14, 0.00,60.00,Monday
213,128778472.71113501
5925,128778472.711135
2,9, 1, 9, 0,15, 0.00,60.00,Monday
213,109904454.91540217
5925,109904454.91540216
2,9, 1, 9, 0,16, 0.00,60.00,Monday
213,133875284.78392935
5925,133875284.78392936
2,9, 1, 9, 0,17, 0.00,60.00,Monday
213,155351731.45259306
5925,155351731.4525931
2,9, 1, 9, 0,18, 0.00,60.00,Monday
213,195526886.22916478
5925,195526886.22916514
2,9, 1, 9, 0,19, 0.00,60.00,Monday
213,233828044.23596874
5925,233828044.23596907
2,9, 1, 9, 0,20, 0.00,60.00,Monday
213,222606822.53311062
5925,222606822.53311098
2,9, 1, 9, 0,21, 0.00,60.00,Monday
213,226795686.97814673
5925,226795686.97814706
2,9, 1, 9, 0,22, 0.00,60.00,Monday
213,198322094.2433323
5925,198322094.24333248
2,9, 1, 9, 0,23, 0.00,60.00,Monday
213,169563606.09913087
5925,169563606.09913087
2,9, 1, 9, 0,24, 0.00,60.00,Monday
213,133652349.99009518
5925,133652349.99009521
2,10, 1,10, 0, 1, 0.00,60.00,Tuesday
213,103678505.53960732
5925,103678505.53960732
2,10, 1,10, 0, 2, 0.00,60.00,Tuesday
213,107482063.56756282
5925,107482063.56756283
2,10, 1,10, 0, 3, 0.00,60.00,Tuesday
213,100342240.25447246
5925,100342240.25447246
2,10, 1,10, 0, 4, 0.00,60.00,Tuesday
213,93048628.90248762
5925,93048628.9024876
2,10, 1,10, 0, 5, 0.00,60.00,Tuesday
213,117321668.65347692
5925,117321668.65347691
2,10, 1,10, 0, 6, 0.00,60.00,Tuesday
213,137615328.4241194
5925,137615328.4241194
2,10, 1,10, 0, 7, 0.00,60.00,Tuesday
213,204169791.09087014
5925,204169791.0908701
2,10, 1,10, 0, 8, 0.00,60.00,Tuesday
213,201364197.5782146
5925,201364197.5782147
2,10, 1,10, 0, 9, 0.00,60.00,Tuesday
213,198592311.45491678
5925,198592311.45491686
2,10, 1,10, 0,10, 0.00,60.00,Tuesday
213,168593181.10196072
5925,168593181.10196072
2,10, 1,10, 0,11, 0.00,60.00,Tuesday
213,162756176.733419
5925,162756176.733419
2,10, 1,10, 0,12, 0.00,60.00,Tuesday
213,136686410.11192977
5925,136686410.11192977
2,10, 1,10, 0,13, 0.00,60.00,Tuesday
213,140285241.88187072
5925,140285241.88187072
2,10, 1,10, 0,14, 0.00,60.00,Tuesday
213,109390384.0936057
5925,109390384.0936057
2,10, 1,10, 0,15, 0.00,60.00,Tuesday
213,128275820.85348131
5925,128275820.85348132
2,10, 1,10, 0,16, 0.00,60.00,Tuesday
213,126437177.54225403
5925,126437177.54225403
2,10, 1,10, 0,17, 0.00,60.00,Tuesday
213,147158515.5534872
5925,147158515.55348718
2,10, 1,10, 0,18, 0.00,60.00,Tuesday
213,202950206.20641008
5925,202950206.20641035
2,10, 1,10, 0,19, 0.00,60.00,Tuesday
213,218645961.29374468
5925,218645961.29374504
2,10, 1,10, 0,20, 0.00,60.00,Tuesday
213,231677541.80069247
5925,231677541.8006928
2,10, 1,10, 0,21, 0.00,60.00,Tuesday
213,209823079.71316803
5925,209823079.71316838
2,10, 1,10, 0,22, 0.00,60.00,Tuesday
213,195255514.47276545
5925,195255514.47276562
2,10, 1,10, 0,23, 0.00,60.00,Tuesday
213,166268646.18533278
5925,166268646.18533275
2,10, 1,10, 0,24, 0.00,60.00,Tuesday
213,127661060.95107241
5925,127661060.95107241
2,11, 1,11, 0, 1, 0.00,60.00,Wednesday
213,109298568.99607272
5925,109298568.99607272
2,11, 1,11, 0, 2, 0.00,60.00,Wednesday
213,86982249.90702976
5925,86982249.90702976
2,11, 1,11, 0, 3, 0.00,60.00,Wednesday
213,106415466.2762397
5925,106415466.2762397
2,11, 1,11, 0, 4, 0.00,60.00,Wednesday
213,86051177.11193787
5925,86051177.11193785
2,11, 1,11, 0, 5, 0.00,60.00,Wednesday
213,96635812.70434052
5925,96635812.70434052
2,11, 1,11, 0, 6, 0.00,60.00,Wednesday
213,136693313.4697997
5925,136693313.46979967
2,11, 1,11, 0, 7, 0.00,60.00,Wednesday
213,188883220.70740947
5925,188883220.7074095
2,11, 1,11, 0, 8, 0.00,60.00,Wednesday
213,196366257.62060156
5925,196366257.62060153
2,11, 1,11, 0, 9, 0.00,60.00,Wednesday
213,186375333.84765187
5925,186375333.8476519
2,11, 1,11, 0,10, 0.00,60.00,Wednesday
213,170208891.86428273
5925,170208891.86428276
2,11, 1,11, 0,11, 0.00,60.00,Wednesday
213,164704660.4529823
5925,164704660.4529823
2,11, 1,11, 0,12, 0.00,60.00,Wednesday
213,146766484.13925955
5925,146766484.13925955
2,11, 1,11, 0,13, 0.00,60.00,Wednesday
213,137697709.81648916
5925,137697709.8164892
2,11, 1,11, 0,14, 0.00,60.00,Wednesday
213,134854512.90454468
5925,134854512.9045447
2,11, 1,11, 0,15, 0.00,60.00,Wednesday
213,127812102.19852945
5925,127812102.19852942
2,11, 1,11, 0,16, 0.00,60.00,Wednesday
213,147084906.00360197
5925,147084906.00360197
2,11, 1,11, 0,17, 0.00,60.00,Wednesday
213,167564535.67430016
5925,167564535.67430034
2,11, 1,11, 0,18, 0.00,60.00,Wednesday
213,202766799.83543983
5925,202766799.8354402
2,11, 1,11, 0,19, 0.00,60.00,Wednesday
213,242938365.791158
5925,242938365.7911583
2,11, 1,11, 0,20, 0.00,60.00,Wednesday
213,237058691.1250055
5925,237058691.1250058
2,11, 1,11, 0,21, 0.00,60.00,Wednesday
213,220096446.0079671
5925,220096446.0079674
2,11, 1,11, 0,22, 0.00,60.00,Wednesday
213,200869038.87590104
5925,200869038.87590122
2,11, 1,11, 0,23, 0.00,60.00,Wednesday
213,172083832.76233378
5925,172083832.76233378
2,11, 1,11, 0,24, 0.00,60.00,Wednesday
213,134363230.8577853
5925,134363230.8577853
2,12, 1,12, 0, 1, 0.00,60.00,Thursday
213,103127917.09693147
5925,103127917.09693146
2,12, 1,12, 0, 2, 0.00,60.00,Thursday
213,106938727.80975191
5925,106938727.80975191
2,12, 1,12, 0, 3, 0.00,60.00,Thursday
213,99715982.91664265
5925,99715982.91664265
2,12, 1,12, 0, 4, 0.00,60.00,Thursday
213,101650608.39240462
5925,101650608.3924046
2,12, 1,12, 0, 5, 0.00,60.00,Thursday
213,106344140.77596691
5925,106344140.77596691
2,12, 1,12, 0, 6, 0.00,60.00,Thursday
213,133248773.63215382
5925,133248773.63215384
2,12, 1,12, 0, 7, 0.00,60.00,Thursday
213,205530071.95544595
5925,205530071.95544595
2,12, 1,12, 0, 8, 0.00,60.00,Thursday
213,198750839.58375287
5925,198750839.58375296
2,12, 1,12, 0, 9, 0.00,60.00,Thursday
213,196917237.8419904
5925,196917237.8419905
2,12, 1,12, 0,10, 0.00,60.00,Thursday
213,176206061.84457916
5925,176206061.84457916
2,12, 1,12, 0,11, 0.00,60.00,Thursday
213,163316279.38231388
5925,163316279.38231388
2,12, 1,12, 0,12, 0.00,60.00,Thursday
213,148363718.48160776
5925,148363718.4816078
2,12, 1,12, 0,13, 0.00,60.00,Thursday
213,151335161.13288102
5925,151335161.13288105
2,12, 1,12, 0,14, 0.00,60.00,Thursday
213,138414516.39597476
5925,138414516.39597476
2,12, 1,12, 0,15, 0.00,60.00,Thursday
213,130991176.5022141
5925,130991176.50221415
2,12, 1,12, 0,16, 0.00,60.00,Thursday
213,149383310.51244378
5925,149383310.51244378
2,12, 1,12, 0,17, 0.00,60.00,Thursday
213,167288434.18863273
5925,167288434.18863288
2,12, 1,12, 0,18, 0.00,60.00,Thursday
213,212418253.8967171
5925,212418253.89671737
2,12, 1,12, 0,19, 0.00,60.00,Thursday
213,237866132.02914223
5925,237866132.02914253
2,12, 1,12, 0,20, 0.00,60.00,Thursday
213,232067051.89362067
5925,232067051.89362103
2,12, 1,12, 0,21, 0.00,60.00,Thursday
213,228260466.1152371
5925,228260466.1152374
2,12, 1,12, 0,22, 0.00,60.00,Thursday
213,202607179.45006406
5925,202607179.4500643
2,12, 1,12, 0,23, 0.00,60.00,Thursday
213,163274919.31113842
5925,163274919.31113845
2,12, 1,12, 0,24, 0.00,60.00,Thursday
213,144577854.50460938
5925,144577854.50460938
2,13, 1,13, 0, 1, 0.00,60.00,Friday
213,107852292.58469826
5925,107852292.58469823
2,13, 1,13, 0, 2, 0.00,60.00,Friday
213,98267029.69309683
5925,98267029.69309683
2,13, 1,13, 0, 3, 0.00,60.00,Friday
213,110672590.39033362
5925,110672590.39033362
2,13, 1,13, 0, 4, 0.00,60.00,Friday
213,93500854.29323356
5925,93500854.29323356
2,13, 1,13, 0, 5, 0.00,60.00,Friday
213,115972549.52979028
5925,115972549.52979028
2,13, 1,13, 0, 6, 0.00,60.00,Friday
213,135709302.8614173
5925,135709302.86141726
2,13, 1,13, 0, 7, 0.00,60.00,Friday
213,203947469.71467596
5925,203947469.71467596
2,13, 1,13, 0, 8, 0.00,60.00,Friday
213,200099918.0278809
5925,200099918.02788106
2,13, 1,13, 0, 9, 0.00,60.00,Friday
213,196945803.9276741
5925,196945803.9276742
2,13, 1,13, 0,10, 0.00,60.00,Friday
213,166074916.59543696
5925,166074916.59543702
2,13, 1,13, 0,11, 0.00,60.00,Friday
213,174138490.13399157
5925,174138490.13399157
2,13, 1,13, 0,12, 0.00,60.00,Friday
213,151169734.00234365
5925,151169734.00234365
2,13, 1,13, 0,13, 0.00,60.00,Friday
213,146568673.41143727
5925,146568673.41143727
2,13, 1,13, 0,14, 0.00,60.00,Friday
213,132680230.3587276
5925,132680230.3587276
2,13, 1,13, 0,15, 0.00,60.00,Friday
213,139023514.80870694
5925,139023514.80870694
2,13, 1,13, 0,16, 0.00,60.00,Friday
213,137132528.03715923
5925,137132528.03715923
2,13, 1,13, 0,17, 0.00,60.00,Friday
213,170228160.38549325
5925,170228160.38549343
2,13, 1,13, 0,18, 0.00,60.00,Friday
213,212717857.38699672
5925,212717857.38699707
2,13, 1,13, 0,19, 0.00,60.00,Friday
213,239777692.27554834
5925,239777692.27554867
2,13, 1,13, 0,20, 0.00,60.00,Friday
213,239821437.71812892
5925,239821437.71812928
2,13, 1,13, 0,21, 0.00,60.00,Friday
213,221393933.9906106
5925,221393933.9906109
2,13, 1,13, 0,22, 0.00,60.00,Friday
213,201013699.22130013
5925,201013699.22130036
2,13, 1,13, 0,23, 0.00,60.00,Friday
213,173897028.7992029
5925,173897028.79920292
2,13, 1,13, 0,24, 0.00,60.00,Friday
213,135381147.20498478
5925,135381147.20498478
2,14, 1,14, 0, 1, 0.00,60.00,Saturday
213,117509574.1664379
5925,117509574.16643786
2,14, 1,14, 0, 2, 0.00,60.00,Saturday
213,99646227.89734936
5925,99646227.89734936
2,14, 1,14, 0, 3, 0.00,60.00,Saturday
213,97043433.70703764
5925,97043433.70703767
2,14, 1,14, 0, 4, 0.00,60.00,Saturday
213,106866622.57531531
5925,106866622.5753153
2,14, 1,14, 0, 5, 0.00,60.00,Saturday
213,104272016.29656138
5925,104272016.29656139
2,14, 1,14, 0, 6, 0.00,60.00,Saturday
213,137385929.21868107
5925,137385929.21868107
2,14, 1,14, 0, 7, 0.00,60.00,Saturday
213,202811760.15976384
5925,202811760.15976378
2,14, 1,14, 0, 8, 0.00,60.00,Saturday
213,203063673.11473712
5925,203063673.1147373
2,14, 1,14, 0, 9, 0.00,60.00,Saturday
213,189710568.87143013
5925,189710568.87143016
2,14, 1,14, 0,10, 0.00,60.00,Saturday
213,177190380.16108266
5925,177190380.16108266
2,14, 1,14, 0,11, 0.00,60.00,Saturday
213,154097645.81624863
5925,154097645.81624863
2,14, 1,14, 0,12, 0.00,60.00,Saturday
213,150524193.88771212
5925,150524193.88771212
2,14, 1,14, 0,13, 0.00,60.00,Saturday
213,146206155.88076237
5925,146206155.88076234
2,14, 1,14, 0,14, 0.00,60.00,Saturday
213,140756455.6574627
5925,140756455.6574627
2,14, 1,14, 0,15, 0.00,60.00,Saturday
213,120825387.82964852
5925,120825387.82964852
2,14, 1,14, 0,16, 0.00,60.00,Saturday
213,146840332.56754622
5925,146840332.56754625
2,14, 1,14, 0,17, 0.00,60.00,Saturday
213,171344470.50443274
5925,171344470.50443292
2,14, 1,14, 0,18, 0.00,60.00,Saturday
213,208197393.15906987
5925,208197393.15907016
2,14, 1,14, 0,19, 0.00,60.00,Saturday
213,245087654.983831
5925,245087654.9838313
2,14, 1,14, 0,20, 0.00,60.00,Saturday
213,224025282.46092105
5925,224025282.46092135
2,14, 1,14, 0,21, 0.00,60.00,Saturday
213,238899087.5943489
5925,238899087.59434927
2,14, 1,14, 0,22, 0.00,60.00,Saturday
213,197686194.25449395
5925,197686194.25449416
2,14, 1,14, 0,23, 0.00,60.00,Saturday
213,175995580.04221565
5925,175995580.04221562
2,14, 1,14, 0,24, 0.00,60.00,Saturday
213,133437616.36014956
5925,133437616.36014956
2,15, 1,15, 0, 1, 0.00,60.00,Sunday
213,103887345.44866754
5925,103887345.44866754
2,15, 1,15, 0, 2, 0.00,60.00,Sunday
213,114375348.1133335
5925,114375348.1133335
2,15, 1,15, 0, 3, 0.00,60.00,Sunday
213,93578662.18616302
5925,93578662.18616304
2,15, 1,15, 0, 4, 0.00,60.00,Sunday
213,97320249.54143462
5925,97320249.54143462
2,15, 1,15, 0, 5, 0.00,60.00,Sunday
213,112100586.70986387
5925,112100586.70986384
2,15, 1,15, 0, 6, 0.00,60.00,Sunday
213,135917183.080142
5925,135917183.080142
2,15, 1,15, 0, 7, 0.00,60.00,Sunday
213,201714759.76485738
5925,201714759.76485738
2,15, 1,15, 0, 8, 0.00,60.00,Sunday
213,206115948.0304398
5925,206115948.03043988
2,15, 1,15, 0, 9, 0.00,60.00,Sunday
213,187299460.45672488
5925,187299460.4567249
2,15, 1,15, 0,10, 0.00,60.00,Sunday
213,177359195.32298064
5925,177359195.32298067
2,15, 1,15, 0,11, 0.00,60.00,Sunday
213,157470568.83967966
5925,157470568.83967966
2,15, 1,15, 0,12, 0.00,60.00,Sunday
213,153397760.97396222
5925,153397760.97396222
2,15, 1,15, 0,13, 0.00,60.00,Sunday
213,144978752.06289703
5925,144978752.06289703
2,15, 1,15, 0,14, 0.00,60.00,Sunday
213,129578856.84783298
5925,129578856.84783298
2,15, 1,15, 0,15, 0.00,60.00,Sunday
213,139012392.8750283
5925,139012392.8750283
2,15, 1,15, 0,16, 0.00,60.00,Sunday
213,140525645.29649913
5925,140525645.29649913
2,15, 1,15, 0,17, 0.00,60.00,Sunday
213,165988760.43737411
5925,165988760.4373743