Program Version,EnergyPlus, Version 26.1.0-6f2e40d102, YMD=2026.04.15 00:14
1,5,Environment Title[],Latitude[deg],Longitude[deg],Time Zone[],Elevation[m]
2,8,Day of Simulation[],Month[],Day of Month[],DST Indicator[1=yes 0=no],Hour[],StartMinute[],EndMinute[],DayType
3,5,Cumulative Day of Simulation[],Month[],Day of Month[],DST Indicator[1=yes 0=no],DayType  ! When Daily Meters Requested
4,2,Cumulative Days of Simulation[],Month[]  ! When Monthly Meters Requested
5,1,Cumulative Days of Simulation[] ! When Run Period Meters Requested
6,1,Calendar Year of Simulation[] ! When Annual Meters Requested
213,1,Electricity:Facility [J] !Hourly
5925,1,ElectricityNet:Facility [J] !Hourly
End of Data Dictionary
1,RUNPERIOD 1,  28.11, 112.79,   8.00, 120.00
2,1, 1, 1, 0, 1, 0.00,60.00,Sunday
213,88445502.00378948
5925,88445502.00378948
2,1, 1, 1, 0, 2, 0.00,60.00,Sunday
213,92117857.14521319
5925,92117857.14521322
2,1, 1, 1, 0, 3, 0.00,60.00,Sunday
213,97031371.54733878
5925,97031371.54733877
2,1, 1, 1, 0, 4, 0.00,60.00,Sunday
213,90369308.90636499
5925,90369308.90636498
2,1, 1, 1, 0, 5, 0.00,60.00,Sunday
213,100332366.5472904
5925,100332366.5472904
2,1, 1, 1, 0, 6, 0.00,60.00,Sunday
213,127007424.5960539
5925,127007424.5960539
2,1, 1, 1, 0, 7, 0.00,60.00,Sunday
213,192289031.33791277
5925,192289031.33791277
2,1, 1, 1, 0, 8, 0.00,60.00,Sunday
213,196199521.74989048
5925,196199521.74989045
2,1, 1, 1, 0, 9, 0.00,60.00,Sunday
213,176105998.47680235
5925,176105998.47680235
2,1, 1, 1, 0,10, 0.00,60.00,Sunday
213,156420888.3688466
5925,156420888.3688466
2,1, 1, 1, 0,11, 0.00,60.00,Sunday
213,157305909.79835606
5925,157305909.79835606
2,1, 1, 1, 0,12, 0.00,60.00,Sunday
213,139244223.07068688
5925,139244223.07068694
2,1, 1, 1, 0,13, 0.00,60.00,Sunday
213,128287570.7797612
5925,128287570.77976121
2,1, 1, 1, 0,14, 0.00,60.00,Sunday
213,133495264.50248897
5925,133495264.50248894
2,1, 1, 1, 0,15, 0.00,60.00,Sunday
213,113079238.31792346
5925,113079238.31792347
2,1, 1, 1, 0,16, 0.00,60.00,Sunday
213,139027071.67476496
5925,139027071.67476493
2,1, 1, 1, 0,17, 0.00,60.00,Sunday
213,158685305.17533815
5925,158685305.17533812
2,1, 1, 1, 0,18, 0.00,60.00,Sunday
213,199301676.18037993
5925,199301676.18038023
2,1, 1, 1, 0,19, 0.00,60.00,Sunday
213,237271019.5452672
5925,237271019.54526752
2,1, 1, 1, 0,20, 0.00,60.00,Sunday
213,220840037.1972314
5925,220840037.19723174
2,1, 1, 1, 0,21, 0.00,60.00,Sunday
213,223944533.22655344
5925,223944533.22655374
2,1, 1, 1, 0,22, 0.00,60.00,Sunday
213,194766124.83734858
5925,194766124.83734882
2,1, 1, 1, 0,23, 0.00,60.00,Sunday
213,165667424.7101184
5925,165667424.7101184
2,1, 1, 1, 0,24, 0.00,60.00,Sunday
213,127749624.7803596
5925,127749624.78035963
2,2, 1, 2, 0, 1, 0.00,60.00,Holiday
213,96052443.45677248
5925,96052443.45677245
2,2, 1, 2, 0, 2, 0.00,60.00,Holiday
213,99062164.03413823
5925,99062164.03413823
2,2, 1, 2, 0, 3, 0.00,60.00,Holiday
213,90773346.9464866
5925,90773346.94648662
2,2, 1, 2, 0, 4, 0.00,60.00,Holiday
213,84952894.28976259
5925,84952894.28976257
2,2, 1, 2, 0, 5, 0.00,60.00,Holiday
213,101061561.77406332
5925,101061561.77406333
2,2, 1, 2, 0, 6, 0.00,60.00,Holiday
213,127748380.12304111
5925,127748380.1230411
2,2, 1, 2, 0, 7, 0.00,60.00,Holiday
213,193553115.76170388
5925,193553115.76170385
2,2, 1, 2, 0, 8, 0.00,60.00,Holiday
213,197680436.27129906
5925,197680436.27129912
2,2, 1, 2, 0, 9, 0.00,60.00,Holiday
213,177264272.45385763
5925,177264272.4538576
2,2, 1, 2, 0,10, 0.00,60.00,Holiday
213,157515442.91775185
5925,157515442.91775185
2,2, 1, 2, 0,11, 0.00,60.00,Holiday
213,158623005.5291131
5925,158623005.5291131
2,2, 1, 2, 0,12, 0.00,60.00,Holiday
213,145084711.15814304
5925,145084711.15814298
2,2, 1, 2, 0,13, 0.00,60.00,Holiday
213,136801472.77364948
5925,136801472.77364948
2,2, 1, 2, 0,14, 0.00,60.00,Holiday
213,121358035.49598256
5925,121358035.49598259
2,2, 1, 2, 0,15, 0.00,60.00,Holiday
213,126315043.21990386
5925,126315043.21990386
2,2, 1, 2, 0,16, 0.00,60.00,Holiday
213,125051850.38340117
5925,125051850.38340117
2,2, 1, 2, 0,17, 0.00,60.00,Holiday
213,166218332.41425246
5925,166218332.41425258
2,2, 1, 2, 0,18, 0.00,60.00,Holiday
213,196394818.17480612
5925,196394818.17480645
2,2, 1, 2, 0,19, 0.00,60.00,Holiday
213,238071828.82962567
5925,238071828.82962605
2,2, 1, 2, 0,20, 0.00,60.00,Holiday
213,228070080.19082564
5925,228070080.190826
2,2, 1, 2, 0,21, 0.00,60.00,Holiday
213,214640337.22597268
5925,214640337.22597304
2,2, 1, 2, 0,22, 0.00,60.00,Holiday
213,192200398.99220943
5925,192200398.99220964
2,2, 1, 2, 0,23, 0.00,60.00,Holiday
213,166404240.5908428
5925,166404240.5908428
2,2, 1, 2, 0,24, 0.00,60.00,Holiday
213,128517276.39139809
5925,128517276.39139806
2,3, 1, 3, 0, 1, 0.00,60.00,Tuesday
213,109940083.72803448
5925,109940083.72803447
2,3, 1, 3, 0, 2, 0.00,60.00,Tuesday
213,93822924.25478853
5925,93822924.25478853
2,3, 1, 3, 0, 3, 0.00,60.00,Tuesday
213,85565465.75158268
5925,85565465.7515827
2,3, 1, 3, 0, 4, 0.00,60.00,Tuesday
213,98038789.83814067
5925,98038789.83814067
2,3, 1, 3, 0, 5, 0.00,60.00,Tuesday
213,95871560.25782754
5925,95871560.25782754
2,3, 1, 3, 0, 6, 0.00,60.00,Tuesday
213,129250997.40017772
5925,129250997.40017769
2,3, 1, 3, 0, 7, 0.00,60.00,Tuesday
213,194721499.35116416
5925,194721499.35116416
2,3, 1, 3, 0, 8, 0.00,60.00,Tuesday
213,191100937.91251808
5925,191100937.91251808
2,3, 1, 3, 0, 9, 0.00,60.00,Tuesday
213,189918944.2052164
5925,189918944.2052164
2,3, 1, 3, 0,10, 0.00,60.00,Tuesday
213,168332046.77470252
5925,168332046.77470252
2,3, 1, 3, 0,11, 0.00,60.00,Tuesday
213,157563043.32382888
5925,157563043.32382885
2,3, 1, 3, 0,12, 0.00,60.00,Tuesday
213,142706907.74761796
5925,142706907.747618
2,3, 1, 3, 0,13, 0.00,60.00,Tuesday
213,141119216.3384116
5925,141119216.33841163
2,3, 1, 3, 0,14, 0.00,60.00,Tuesday
213,126172890.10337552
5925,126172890.10337552
2,3, 1, 3, 0,15, 0.00,60.00,Tuesday
213,138821849.07639915
5925,138821849.07639915
2,3, 1, 3, 0,16, 0.00,60.00,Tuesday
213,143899794.72872585
5925,143899794.72872582
2,3, 1, 3, 0,17, 0.00,60.00,Tuesday
213,151040201.5725615
5925,151040201.57256168
2,3, 1, 3, 0,18, 0.00,60.00,Tuesday
213,211691860.55863976
5925,211691860.55864012
2,3, 1, 3, 0,19, 0.00,60.00,Tuesday
213,225364612.4742352
5925,225364612.47423553
2,3, 1, 3, 0,20, 0.00,60.00,Tuesday
213,236183007.45070612
5925,236183007.45070642
2,3, 1, 3, 0,21, 0.00,60.00,Tuesday
213,211904904.13778573
5925,211904904.13778615
2,3, 1, 3, 0,22, 0.00,60.00,Tuesday
213,195938700.07474968
5925,195938700.07474983
2,3, 1, 3, 0,23, 0.00,60.00,Tuesday
213,166742396.0812978
5925,166742396.0812978
2,3, 1, 3, 0,24, 0.00,60.00,Tuesday
213,128193669.89911795
5925,128193669.89911795
2,4, 1, 4, 0, 1, 0.00,60.00,Wednesday
213,102615290.86213046
5925,102615290.86213046
2,4, 1, 4, 0, 2, 0.00,60.00,Wednesday
213,93998792.44434096
5925,93998792.44434096
2,4, 1, 4, 0, 3, 0.00,60.00,Wednesday
213,99420783.4279322
5925,99420783.42793222
2,4, 1, 4, 0, 4, 0.00,60.00,Wednesday
213,92695455.03380029
5925,92695455.03380027
2,4, 1, 4, 0, 5, 0.00,60.00,Wednesday
213,89167817.98080973
5925,89167817.98080973
2,4, 1, 4, 0, 6, 0.00,60.00,Wednesday
213,129226140.00519702
5925,129226140.00519702
2,4, 1, 4, 0, 7, 0.00,60.00,Wednesday
213,194567689.19363967
5925,194567689.19363964
2,4, 1, 4, 0, 8, 0.00,60.00,Wednesday
213,198968183.65983582
5925,198968183.6598358
2,4, 1, 4, 0, 9, 0.00,60.00,Wednesday
213,182675199.02362087
5925,182675199.02362087
2,4, 1, 4, 0,10, 0.00,60.00,Wednesday
213,176153700.48822218
5925,176153700.48822215
2,4, 1, 4, 0,11, 0.00,60.00,Wednesday
213,149437870.90111837
5925,149437870.90111837
2,4, 1, 4, 0,12, 0.00,60.00,Wednesday
213,148066634.3602514
5925,148066634.3602514
2,4, 1, 4, 0,13, 0.00,60.00,Wednesday
213,138413118.85602263
5925,138413118.85602263
2,4, 1, 4, 0,14, 0.00,60.00,Wednesday
213,136713493.31121865
5925,136713493.31121865
2,4, 1, 4, 0,15, 0.00,60.00,Wednesday
213,116382836.17315522
5925,116382836.17315523
2,4, 1, 4, 0,16, 0.00,60.00,Wednesday
213,142008402.94627878
5925,142008402.94627872
2,4, 1, 4, 0,17, 0.00,60.00,Wednesday
213,169331056.39193958
5925,169331056.3919398
2,4, 1, 4, 0,18, 0.00,60.00,Wednesday
213,196503802.01562363
5925,196503802.01562396
2,4, 1, 4, 0,19, 0.00,60.00,Wednesday
213,237368623.15024868
5925,237368623.150249
2,4, 1, 4, 0,20, 0.00,60.00,Wednesday
213,212910611.0581904
5925,212910611.05819076
2,4, 1, 4, 0,21, 0.00,60.00,Wednesday
213,229988509.67333174
5925,229988509.6733321
2,4, 1, 4, 0,22, 0.00,60.00,Wednesday
213,189056933.80541128
5925,189056933.80541152
2,4, 1, 4, 0,23, 0.00,60.00,Wednesday
213,151909462.50408283
5925,151909462.50408283
2,4, 1, 4, 0,24, 0.00,60.00,Wednesday
213,140549113.2610351
5925,140549113.2610351
2,5, 1, 5, 0, 1, 0.00,60.00,Thursday
213,95691359.4840376
5925,95691359.48403758
2,5, 1, 5, 0, 2, 0.00,60.00,Thursday
213,105726306.39467883
5925,105726306.39467885
2,5, 1, 5, 0, 3, 0.00,60.00,Thursday
213,84612300.06193046
5925,84612300.06193048
2,5, 1, 5, 0, 4, 0.00,60.00,Thursday
213,83884150.41952178
5925,83884150.41952176
2,5, 1, 5, 0, 5, 0.00,60.00,Thursday
213,107410498.8983013
5925,107410498.8983013
2,5, 1, 5, 0, 6, 0.00,60.00,Thursday
213,127780821.84859815
5925,127780821.84859817
2,5, 1, 5, 0, 7, 0.00,60.00,Thursday
213,193857095.40832707
5925,193857095.40832704
2,5, 1, 5, 0, 8, 0.00,60.00,Thursday
213,190551575.93101236
5925,190551575.9310124
2,5, 1, 5, 0, 9, 0.00,60.00,Thursday
213,188591502.0373497
5925,188591502.03734973
2,5, 1, 5, 0,10, 0.00,60.00,Thursday
213,151976621.1756059
5925,151976621.1756059
2,5, 1, 5, 0,11, 0.00,60.00,Thursday
213,166892671.23324448
5925,166892671.23324448
2,5, 1, 5, 0,12, 0.00,60.00,Thursday
213,137544916.0284005
5925,137544916.0284005
2,5, 1, 5, 0,13, 0.00,60.00,Thursday
213,129448412.2519953
5925,129448412.2519953
2,5, 1, 5, 0,14, 0.00,60.00,Thursday
213,125944714.91353314
5925,125944714.91353312
2,5, 1, 5, 0,15, 0.00,60.00,Thursday
213,131538077.81696379
5925,131538077.81696376
2,5, 1, 5, 0,16, 0.00,60.00,Thursday
213,122845752.88239089
5925,122845752.88239089
2,5, 1, 5, 0,17, 0.00,60.00,Thursday
213,157288061.66688436
5925,157288061.66688442
2,5, 1, 5, 0,18, 0.00,60.00,Thursday
213,192772509.3759361
5925,192772509.37593648
2,5, 1, 5, 0,19, 0.00,60.00,Thursday
213,234633538.82229006
5925,234633538.82229042
2,5, 1, 5, 0,20, 0.00,60.00,Thursday
213,232123250.44372013
5925,232123250.4437205
2,5, 1, 5, 0,21, 0.00,60.00,Thursday
213,208303485.35946792
5925,208303485.35946828
2,5, 1, 5, 0,22, 0.00,60.00,Thursday
213,192670554.54739547
5925,192670554.54739568
2,5, 1, 5, 0,23, 0.00,60.00,Thursday
213,163505096.38174483
5925,163505096.38174483
2,5, 1, 5, 0,24, 0.00,60.00,Thursday
213,124823093.69496721
5925,124823093.69496721
2,6, 1, 6, 0, 1, 0.00,60.00,Friday
213,100010382.53961995
5925,100010382.53961995
2,6, 1, 6, 0, 2, 0.00,60.00,Friday
213,89936451.37063253
5925,89936451.37063253
2,6, 1, 6, 0, 3, 0.00,60.00,Friday
213,89633275.58262308
5925,89633275.58262306
2,6, 1, 6, 0, 4, 0.00,60.00,Friday
213,95208148.69837491
5925,95208148.69837491
2,6, 1, 6, 0, 5, 0.00,60.00,Friday
213,91997022.54415825
5925,91997022.54415825
2,6, 1, 6, 0, 6, 0.00,60.00,Friday
213,119616808.84267023
5925,119616808.84267023
2,6, 1, 6, 0, 7, 0.00,60.00,Friday
213,197100260.49777815
5925,197100260.49777815
2,6, 1, 6, 0, 8, 0.00,60.00,Friday
213,190027242.09695017
5925,190027242.09695017
2,6, 1, 6, 0, 9, 0.00,60.00,Friday
213,178172729.61263305
5925,178172729.61263302
2,6, 1, 6, 0,10, 0.00,60.00,Friday
213,169637755.00488785
5925,169637755.00488782
2,6, 1, 6, 0,11, 0.00,60.00,Friday
213,141277903.84233606
5925,141277903.84233606
2,6, 1, 6, 0,12, 0.00,60.00,Friday
213,140116056.16701987
5925,140116056.16701987
2,6, 1, 6, 0,13, 0.00,60.00,Friday
213,130718573.13995823
5925,130718573.13995823
2,6, 1, 6, 0,14, 0.00,60.00,Friday
213,116582598.2643281
5925,116582598.2643281
2,6, 1, 6, 0,15, 0.00,60.00,Friday
213,129901459.33020286
5925,129901459.33020286
2,6, 1, 6, 0,16, 0.00,60.00,Friday
213,131686411.12312157
5925,131686411.12312154
2,6, 1, 6, 0,17, 0.00,60.00,Friday
213,142383402.90516707
5925,142383402.90516704
2,6, 1, 6, 0,18, 0.00,60.00,Friday
213,201671392.46939474
5925,201671392.46939507
2,6, 1, 6, 0,19, 0.00,60.00,Friday
213,217445227.69959682
5925,217445227.69959712
2,6, 1, 6, 0,20, 0.00,60.00,Friday
213,226962625.11006385
5925,226962625.1100642
2,6, 1, 6, 0,21, 0.00,60.00,Friday
213,207608731.41160747
5925,207608731.41160786
2,6, 1, 6, 0,22, 0.00,60.00,Friday
213,183319832.52353126
5925,183319832.52353144
2,6, 1, 6, 0,23, 0.00,60.00,Friday
213,169815888.21214375
5925,169815888.21214372
2,6, 1, 6, 0,24, 0.00,60.00,Friday
213,124650301.53292412
5925,124650301.53292409
2,7, 1, 7, 0, 1, 0.00,60.00,Saturday
213,100538991.03989139
5925,100538991.03989139
2,7, 1, 7, 0, 2, 0.00,60.00,Saturday
213,92744210.63440642
5925,92744210.63440642
2,7, 1, 7, 0, 3, 0.00,60.00,Saturday
213,97961462.38483843
5925,97961462.38483845
2,7, 1, 7, 0, 4, 0.00,60.00,Saturday
213,91400708.13392729
5925,91400708.13392729
2,7, 1, 7, 0, 5, 0.00,60.00,Saturday
213,88486331.59219141
5925,88486331.5921914
2,7, 1, 7, 0, 6, 0.00,60.00,Saturday
213,138380248.66653502
5925,138380248.66653502
2,7, 1, 7, 0, 7, 0.00,60.00,Saturday
213,184357917.37762976
5925,184357917.3776298
2,7, 1, 7, 0, 8, 0.00,60.00,Saturday
213,203283733.719484
5925,203283733.719484
2,7, 1, 7, 0, 9, 0.00,60.00,Saturday
213,171725987.44939756
5925,171725987.44939756
2,7, 1, 7, 0,10, 0.00,60.00,Saturday
213,168546272.7684051
5925,168546272.76840514
2,7, 1, 7, 0,11, 0.00,60.00,Saturday
213,142260620.84787297
5925,142260620.84787294
2,7, 1, 7, 0,12, 0.00,60.00,Saturday
213,141814145.9431809
5925,141814145.94318086
2,7, 1, 7, 0,13, 0.00,60.00,Saturday
213,122634524.7386752
5925,122634524.73867518
2,7, 1, 7, 0,14, 0.00,60.00,Saturday
213,125929220.7630694
5925,125929220.7630694
2,7, 1, 7, 0,15, 0.00,60.00,Saturday
213,104042626.58526108
5925,104042626.58526108
2,7, 1, 7, 0,16, 0.00,60.00,Saturday
213,129576853.79501715
5925,129576853.79501714
2,7, 1, 7, 0,17, 0.00,60.00,Saturday
213,157220481.2018228
5925,157220481.20182276
2,7, 1, 7, 0,18, 0.00,60.00,Saturday
213,191219633.47718862
5925,191219633.47718894
2,7, 1, 7, 0,19, 0.00,60.00,Saturday
213,232820578.97827083
5925,232820578.9782712
2,7, 1, 7, 0,20, 0.00,60.00,Saturday
213,210148693.50291362
5925,210148693.50291398
2,7, 1, 7, 0,21, 0.00,60.00,Saturday
213,226258363.66995206
5925,226258363.6699524
2,7, 1, 7, 0,22, 0.00,60.00,Saturday
213,185610334.99661076
5925,185610334.99661094
2,7, 1, 7, 0,23, 0.00,60.00,Saturday
213,163145679.6848768
5925,163145679.6848768
2,7, 1, 7, 0,24, 0.00,60.00,Saturday
213,125312311.84535438
5925,125312311.8453544
2,8, 1, 8, 0, 1, 0.00,60.00,Sunday
213,93955457.23911813
5925,93955457.23911813
2,8, 1, 8, 0, 2, 0.00,60.00,Sunday
213,105062871.62341909
5925,105062871.62341909
2,8, 1, 8, 0, 3, 0.00,60.00,Sunday
213,84341638.84527974
5925,84341638.84527974
2,8, 1, 8, 0, 4, 0.00,60.00,Sunday
213,84069144.42380679
5925,84069144.42380677
2,8, 1, 8, 0, 5, 0.00,60.00,Sunday
213,108190892.2260145
5925,108190892.2260145
2,8, 1, 8, 0, 6, 0.00,60.00,Sunday
213,128046393.28630544
5925,128046393.28630544
2,8, 1, 8, 0, 7, 0.00,60.00,Sunday
213,193908740.28118208
5925,193908740.28118208
2,8, 1, 8, 0, 8, 0.00,60.00,Sunday
213,193372874.5112848
5925,193372874.5112848
2,8, 1, 8, 0, 9, 0.00,60.00,Sunday
213,181268596.30211198
5925,181268596.30211204
2,8, 1, 8, 0,10, 0.00,60.00,Sunday
213,161662492.93894038
5925,161662492.9389404
2,8, 1, 8, 0,11, 0.00,60.00,Sunday
213,144038537.69549403
5925,144038537.69549406
2,8, 1, 8, 0,12, 0.00,60.00,Sunday
213,132969808.45123556
5925,132969808.45123556
2,8, 1, 8, 0,13, 0.00,60.00,Sunday
213,130403700.14314175
5925,130403700.14314172
2,8, 1, 8, 0,14, 0.00,60.00,Sunday
213,111514231.54209827
5925,111514231.54209825
2,8, 1, 8, 0,15, 0.00,60.00,Sunday
213,117576685.7777753
5925,117576685.77777527
2,8, 1, 8, 0,16, 0.00,60.00,Sunday
213,117983199.72576538
5925,117983199.72576538
2,8, 1, 8, 0,17, 0.00,60.00,Sunday
213,147170278.07684603
5925,147170278.07684603
2,8, 1, 8, 0,18, 0.00,60.00,Sunday
213,202789151.63535142
5925,202789151.63535172
2,8, 1, 8, 0,19, 0.00,60.00,Sunday
213,215197515.42442638
5925,215197515.4244267
2,8, 1, 8, 0,20, 0.00,60.00,Sunday
213,228237058.59889892
5925,228237058.5988992
2,8, 1, 8, 0,21, 0.00,60.00,Sunday
213,205123943.33234972
5925,205123943.33235005
2,8, 1, 8, 0,22, 0.00,60.00,Sunday
213,190249963.466775
5925,190249963.46677518
2,8, 1, 8, 0,23, 0.00,60.00,Sunday
213,161790229.1723147
5925,161790229.1723147
2,8, 1, 8, 0,24, 0.00,60.00,Sunday
213,123878135.07890666
5925,123878135.07890664
2,9, 1, 9, 0, 1, 0.00,60.00,Monday
213,105989425.73746906
5925,105989425.73746903
2,9, 1, 9, 0, 2, 0.00,60.00,Monday
213,84594017.42216843
5925,84594017.42216843
2,9, 1, 9, 0, 3, 0.00,60.00,Monday
213,100421746.48550479
5925,100421746.4855048
2,9, 1, 9, 0, 4, 0.00,60.00,Monday
213,86727929.34984651
5925,86727929.3498465
2,9, 1, 9, 0, 5, 0.00,60.00,Monday
213,94933211.4154551
5925,94933211.41545509
2,9, 1, 9, 0, 6, 0.00,60.00,Monday
213,126531109.12565249
5925,126531109.12565249
2,9, 1, 9, 0, 7, 0.00,60.00,Monday
213,196493209.76479232
5925,196493209.76479232
2,9, 1, 9, 0, 8, 0.00,60.00,Monday
213,191727375.85201684
5925,191727375.85201687
2,9, 1, 9, 0, 9, 0.00,60.00,Monday
213,188172632.30051813
5925,188172632.30051813
2,9, 1, 9, 0,10, 0.00,60.00,Monday
213,164837792.32738668
5925,164837792.32738668
2,9, 1, 9, 0,11, 0.00,60.00,Monday
213,149914928.1968369
5925,149914928.19683686
2,9, 1, 9, 0,12, 0.00,60.00,Monday
213,132213236.75647295
5925,132213236.75647298
2,9, 1, 9, 0,13, 0.00,60.00,Monday
213,135573795.80361682
5925,135573795.80361682
2,9, 1, 9, 0,14, 0.00,60.00,Monday
213,131603830.96158518
5925,131603830.96158515
2,9, 1, 9, 0,15, 0.00,60.00,Monday
213,117450213.662659
5925,117450213.66265899
2,9, 1, 9, 0,16, 0.00,60.00,Monday
213,138364296.4878475
5925,138364296.48784748
2,9, 1, 9, 0,17, 0.00,60.00,Monday
213,151073820.87506828
5925,151073820.87506828
2,9, 1, 9, 0,18, 0.00,60.00,Monday
213,192093241.20206004
5925,192093241.2020604
2,9, 1, 9, 0,19, 0.00,60.00,Monday
213,223770722.17392892
5925,223770722.17392927
2,9, 1, 9, 0,20, 0.00,60.00,Monday
213,217624710.34790286
5925,217624710.34790322
2,9, 1, 9, 0,21, 0.00,60.00,Monday
213,214269224.36794984
5925,214269224.36795023
2,9, 1, 9, 0,22, 0.00,60.00,Monday
213,189313877.94816336
5925,189313877.9481635
2,9, 1, 9, 0,23, 0.00,60.00,Monday
213,160622533.2640264
5925,160622533.2640264
2,9, 1, 9, 0,24, 0.00,60.00,Monday
213,124140147.57657132
5925,124140147.57657132
2,10, 1,10, 0, 1, 0.00,60.00,Tuesday
213,97322925.19969374
5925,97322925.19969372
2,10, 1,10, 0, 2, 0.00,60.00,Tuesday
213,94184539.12337804
5925,94184539.12337804
2,10, 1,10, 0, 3, 0.00,60.00,Tuesday
213,92416124.51406726
5925,92416124.51406726
2,10, 1,10, 0, 4, 0.00,60.00,Tuesday
213,84931420.78231551
5925,84931420.78231551
2,10, 1,10, 0, 5, 0.00,60.00,Tuesday
213,103530175.60232514
5925,103530175.60232511
2,10, 1,10, 0, 6, 0.00,60.00,Tuesday
213,128353084.89474165
5925,128353084.89474165
2,10, 1,10, 0, 7, 0.00,60.00,Tuesday
213,193768334.6471129
5925,193768334.6471129
2,10, 1,10, 0, 8, 0.00,60.00,Tuesday
213,195343702.28964162
5925,195343702.28964168
2,10, 1,10, 0, 9, 0.00,60.00,Tuesday
213,183950997.28205216
5925,183950997.28205216
2,10, 1,10, 0,10, 0.00,60.00,Tuesday
213,160834425.88716385
5925,160834425.88716385
2,10, 1,10, 0,11, 0.00,60.00,Tuesday
213,153964345.28812733
5925,153964345.2881273
2,10, 1,10, 0,12, 0.00,60.00,Tuesday
213,135451052.30578864
5925,135451052.30578864
2,10, 1,10, 0,13, 0.00,60.00,Tuesday
213,131639742.29703516
5925,131639742.29703516
2,10, 1,10, 0,14, 0.00,60.00,Tuesday
213,119406846.70707358
5925,119406846.70707357
2,10, 1,10, 0,15, 0.00,60.00,Tuesday
213,128297671.26928994
5925,128297671.26928994
2,10, 1,10, 0,16, 0.00,60.00,Tuesday
213,128186911.02529538
5925,128186911.02529538
2,10, 1,10, 0,17, 0.00,60.00,Tuesday
213,149847439.38355342
5925,149847439.3835534
2,10, 1,10, 0,18, 0.00,60.00,Tuesday
213,195842734.89353365
5925,195842734.89353397
2,10, 1,10, 0,19, 0.00,60.00,Tuesday
213,217214858.05008057
5925,217214858.05008093
2,10, 1,10, 0,20, 0.00,60.00,Tuesday
213,220253821.2061727
5925,220253821.20617303
2,10, 1,10, 0,21, 0.00,60.00,Tuesday
213,207106554.54274237
5925,207106554.54274267
2,10, 1,10, 0,22, 0.00,60.00,Tuesday
213,184008466.5072373
5925,184008466.50723746
2,10, 1,10, 0,23, 0.00,60.00,Tuesday
213,161239248.87281147
5925,161239248.8728114
2,10, 1,10, 0,24, 0.00,60.00,Tuesday
213,119560820.09927857
5925,119560820.09927855
2,11, 1,11, 0, 1, 0.00,60.00,Wednesday
213,94211970.51410566
5925,94211970.51410563
2,11, 1,11, 0, 2, 0.00,60.00,Wednesday
213,85915374.44543418
5925,85915374.44543417
2,11, 1,11, 0, 3, 0.00,60.00,Wednesday
213,89772920.79565096
5925,89772920.79565094
2,11, 1,11, 0, 4, 0.00,60.00,Wednesday
213,83352912.21232587
5925,83352912.21232586
2,11, 1,11, 0, 5, 0.00,60.00,Wednesday
213,88707744.42180996
5925,88707744.42180996
2,11, 1,11, 0, 6, 0.00,60.00,Wednesday
213,127820250.1219199
5925,127820250.12191992
2,11, 1,11, 0, 7, 0.00,60.00,Wednesday
213,182000429.4379664
5925,182000429.4379664
2,11, 1,11, 0, 8, 0.00,60.00,Wednesday
213,190568714.17430216
5925,190568714.1743021
2,11, 1,11, 0, 9, 0.00,60.00,Wednesday
213,177348223.07407644
5925,177348223.07407644
2,11, 1,11, 0,10, 0.00,60.00,Wednesday
213,165665239.68038464
5925,165665239.68038464
2,11, 1,11, 0,11, 0.00,60.00,Wednesday
213,150589236.70040277
5925,150589236.70040277
2,11, 1,11, 0,12, 0.00,60.00,Wednesday
213,142053455.87469923
5925,142053455.87469923
2,11, 1,11, 0,13, 0.00,60.00,Wednesday
213,132021923.51276694
5925,132021923.51276694
2,11, 1,11, 0,14, 0.00,60.00,Wednesday
213,125168701.66907367
5925,125168701.66907366
2,11, 1,11, 0,15, 0.00,60.00,Wednesday
213,122405626.52241358
5925,122405626.5224136
2,11, 1,11, 0,16, 0.00,60.00,Wednesday
213,136476480.39387482
5925,136476480.39387482
2,11, 1,11, 0,17, 0.00,60.00,Wednesday
213,159017823.13305506
5925,159017823.1330552
2,11, 1,11, 0,18, 0.00,60.00,Wednesday
213,197779003.40401542
5925,197779003.40401572
2,11, 1,11, 0,19, 0.00,60.00,Wednesday
213,230762821.72140393
5925,230762821.72140428
2,11, 1,11, 0,20, 0.00,60.00,Wednesday
213,226098730.91131693
5925,226098730.9113173
2,11, 1,11, 0,21, 0.00,60.00,Wednesday
213,213916474.6890858
5925,213916474.68908623
2,11, 1,11, 0,22, 0.00,60.00,Wednesday
213,188751152.1519916
5925,188751152.15199178
2,11, 1,11, 0,23, 0.00,60.00,Wednesday
213,167102506.28482714
5925,167102506.28482717
2,11, 1,11, 0,24, 0.00,60.00,Wednesday
213,124885911.91144182
5925,124885911.91144182
2,12, 1,12, 0, 1, 0.00,60.00,Thursday
213,94936807.89555383
5925,94936807.89555381
2,12, 1,12, 0, 2, 0.00,60.00,Thursday
213,98010526.71832201
5925,98010526.71832201
2,12, 1,12, 0, 3, 0.00,60.00,Thursday
213,90756119.11428776
5925,90756119.1142878
2,12, 1,12, 0, 4, 0.00,60.00,Thursday
213,93465940.7297587
5925,93465940.7297587
2,12, 1,12, 0, 5, 0.00,60.00,Thursday
213,94957152.47787096
5925,94957152.47787096
2,12, 1,12, 0, 6, 0.00,60.00,Thursday
213,128682061.25383781
5925,128682061.25383781
2,12, 1,12, 0, 7, 0.00,60.00,Thursday
213,191711197.18128696
5925,191711197.18128696
2,12, 1,12, 0, 8, 0.00,60.00,Thursday
213,195610046.08862785
5925,195610046.08862785
2,12, 1,12, 0, 9, 0.00,60.00,Thursday
213,183746258.64370006
5925,183746258.64370006
2,12, 1,12, 0,10, 0.00,60.00,Thursday
213,165772569.28587502
5925,165772569.285875
2,12, 1,12, 0,11, 0.00,60.00,Thursday
213,156744005.06516254
5925,156744005.0651625
2,12, 1,12, 0,12, 0.00,60.00,Thursday
213,143426663.71678087
5925,143426663.7167809
2,12, 1,12, 0,13, 0.00,60.00,Thursday
213,137968157.22617322
5925,137968157.22617325
2,12, 1,12, 0,14, 0.00,60.00,Thursday
213,130598738.73914938
5925,130598738.73914938
2,12, 1,12, 0,15, 0.00,60.00,Thursday
213,124784206.69457972
5925,124784206.69457972
2,12, 1,12, 0,16, 0.00,60.00,Thursday
213,133751115.66741584
5925,133751115.66741584
2,12, 1,12, 0,17, 0.00,60.00,Thursday
213,163683646.03098744
5925,163683646.03098762
2,12, 1,12, 0,18, 0.00,60.00,Thursday
213,202601405.11795995
5925,202601405.11796027
2,12, 1,12, 0,19, 0.00,60.00,Thursday
213,230182845.11564916
5925,230182845.1156495
2,12, 1,12, 0,20, 0.00,60.00,Thursday
213,225111125.07778087
5925,225111125.07778126
2,12, 1,12, 0,21, 0.00,60.00,Thursday
213,217834981.64504445
5925,217834981.6450448
2,12, 1,12, 0,22, 0.00,60.00,Thursday
213,190760080.69857767
5925,190760080.69857785
2,12, 1,12, 0,23, 0.00,60.00,Thursday
213,161379900.25774887
5925,161379900.25774884
2,12, 1,12, 0,24, 0.00,60.00,Thursday
213,132189264.43617763
5925,132189264.43617761
2,13, 1,13, 0, 1, 0.00,60.00,Friday
213,99255846.29164048
5925,99255846.29164046
2,13, 1,13, 0, 2, 0.00,60.00,Friday
213,91880105.87022385
5925,91880105.87022385
2,13, 1,13, 0, 3, 0.00,60.00,Friday
213,95588171.87546
5925,95588171.87546001
2,13, 1,13, 0, 4, 0.00,60.00,Friday
213,91466672.27135502
5925,91466672.27135502
2,13, 1,13, 0, 5, 0.00,60.00,Friday
213,98270621.98013538
5925,98270621.98013538
2,13, 1,13, 0, 6, 0.00,60.00,Friday
213,130319629.04313827
5925,130319629.04313828
2,13, 1,13, 0, 7, 0.00,60.00,Friday
213,191356764.22778597
5925,191356764.227786
2,13, 1,13, 0, 8, 0.00,60.00,Friday
213,194959719.46553966
5925,194959719.46553963
2,13, 1,13, 0, 9, 0.00,60.00,Friday
213,184307600.1423631
5925,184307600.1423631
2,13, 1,13, 0,10, 0.00,60.00,Friday
213,165780302.60001445
5925,165780302.60001445
2,13, 1,13, 0,11, 0.00,60.00,Friday
213,158026720.25907886
5925,158026720.2590789
2,13, 1,13, 0,12, 0.00,60.00,Friday
213,146487210.4818425
5925,146487210.48184252
2,13, 1,13, 0,13, 0.00,60.00,Friday
213,135876596.54503572
5925,135876596.54503572
2,13, 1,13, 0,14, 0.00,60.00,Friday
213,130204478.83072314
5925,130204478.8307231
2,13, 1,13, 0,15, 0.00,60.00,Friday
213,126070404.30241632
5925,126070404.30241632
2,13, 1,13, 0,16, 0.00,60.00,Friday
213,132365045.49061367
5925,132365045.49061367
2,13, 1,13, 0,17, 0.00,60.00,Friday
213,163273016.72269785
5925,163273016.722698
2,13, 1,13, 0,18, 0.00,60.00,Friday
213,201299793.66852364
5925,201299793.66852397
2,13, 1,13, 0,19, 0.00,60.00,Friday
213,233143525.98906702
5925,233143525.98906738
2,13, 1,13, 0,20, 0.00,60.00,Friday
213,227910186.81059897
5925,227910186.81059927
2,13, 1,13, 0,21, 0.00,60.00,Friday
213,216003183.4699168
5925,216003183.46991706
2,13, 1,13, 0,22, 0.00,60.00,Friday
213,191710498.19368246
5925,191710498.19368264
2,13, 1,13, 0,23, 0.00,60.00,Friday
213,162772140.41415557
5925,162772140.41415554
2,13, 1,13, 0,24, 0.00,60.00,Friday
213,130199425.65196693
5925,130199425.65196691
2,14, 1,14, 0, 1, 0.00,60.00,Saturday
213,100736485.89507443
5925,100736485.89507441
2,14, 1,14, 0, 2, 0.00,60.00,Saturday
213,97604910.16816625
5925,97604910.16816622
2,14, 1,14, 0, 3, 0.00,60.00,Saturday
213,85484279.51476005
5925,85484279.51476005
2,14, 1,14, 0, 4, 0.00,60.00,Saturday
213,97917300.93443772
5925,97917300.93443772
2,14, 1,14, 0, 5, 0.00,60.00,Saturday
213,95298569.22969612
5925,95298569.22969611
2,14, 1,14, 0, 6, 0.00,60.00,Saturday
213,128492755.6991468
5925,128492755.69914679
2,14, 1,14, 0, 7, 0.00,60.00,Saturday
213,193923753.64939103
5925,193923753.64939106
2,14, 1,14, 0, 8, 0.00,60.00,Saturday
213,196979024.86052218
5925,196979024.86052218
2,14, 1,14, 0, 9, 0.00,60.00,Saturday
213,178173655.6426064
5925,178173655.6426064
2,14, 1,14, 0,10, 0.00,60.00,Saturday
213,167099046.0946332
5925,167099046.0946332
2,14, 1,14, 0,11, 0.00,60.00,Saturday
213,147085899.18505254
5925,147085899.18505254
2,14, 1,14, 0,12, 0.00,60.00,Saturday
213,144145365.94222787
5925,144145365.9422279
2,14, 1,14, 0,13, 0.00,60.00,Saturday
213,135529352.0578673
5925,135529352.0578673
2,14, 1,14, 0,14, 0.00,60.00,Saturday
213,128882209.66678321
5925,128882209.66678321
2,14, 1,14, 0,15, 0.00,60.00,Saturday
213,119428543.20141503
5925,119428543.20141503
2,14, 1,14, 0,16, 0.00,60.00,Saturday
213,134615212.99336582
5925,134615212.99336582
2,14, 1,14, 0,17, 0.00,60.00,Saturday
213,161558533.80890048
5925,161558533.80890054
2,14, 1,14, 0,18, 0.00,60.00,Saturday
213,200442548.2021836
5925,200442548.20218396
2,14, 1,14, 0,19, 0.00,60.00,Saturday
213,234261620.26667088
5925,234261620.26667124
2,14, 1,14, 0,20, 0.00,60.00,Saturday
213,220923289.32234922
5925,220923289.32234955
2,14, 1,14, 0,21, 0.00,60.00,Saturday
213,224521865.77285266
5925,224521865.77285302
2,14, 1,14, 0,22, 0.00,60.00,Saturday
213,191112353.05412263
5925,191112353.0541228
2,14, 1,14, 0,23, 0.00,60.00,Saturday
213,164866591.10478106
5925,164866591.10478106
2,14, 1,14, 0,24, 0.00,60.00,Saturday
213,127261865.88419719
5925,127261865.88419719
2,15, 1,15, 0, 1, 0.00,60.00,Sunday
213,98703247.33834395
5925,98703247.33834393
2,15, 1,15, 0, 2, 0.00,60.00,Sunday
213,98727011.85102993
5925,98727011.85102996
2,15, 1,15, 0, 3, 0.00,60.00,Sunday
213,90080022.67414767
5925,90080022.67414768
2,15, 1,15, 0, 4, 0.00,60.00,Sunday
213,88766327.25974539
5925,88766327.25974539
2,15, 1,15, 0, 5, 0.00,60.00,Sunday
213,98203390.64297129
5925,98203390.64297128
2,15, 1,15, 0, 6, 0.00,60.00,Sunday
213,127382764.63952935
5925,127382764.63952935
2,15, 1,15, 0, 7, 0.00,60.00,Sunday
213,194397798.61792582
5925,194397798.61792576
2,15, 1,15, 0, 8, 0.00,60.00,Sunday
213,196092079.39615068
5925,196092079.3961507
2,15, 1,15, 0, 9, 0.00,60.00,Sunday
213,178203830.42200235
5925,178203830.42200232
2,15, 1,15, 0,10, 0.00,60.00,Sunday
213,168559716.33716023
5925,168559716.33716023
2,15, 1,15, 0,11, 0.00,60.00,Sunday
213,150414205.10109806
5925,150414205.10109806
2,15, 1,15, 0,12, 0.00,60.00,Sunday
213,144069786.37033293
5925,144069786.37033293
2,15, 1,15, 0,13, 0.00,60.00,Sunday
213,134847229.01588643
5925,134847229.0158864
2,15, 1,15, 0,14, 0.00,60.00,Sunday
213,124362769.92893821
5925,124362769.9289382
2,15, 1,15, 0,15, 0.00,60.00,Sunday
213,128976607.63691379
5925,128976607.63691378
2,15, 1,15, 0,16, 0.00,60.00,Sunday
213,133457860.85246079
5925,133457860.85246077
2,15, 1,15, 0,17, 0.00,60.00,Sunday
213,156189577.1415615
5925,156189577.14156163