Program Version,EnergyPlus, Version 26.1.0-6f2e40d102, YMD=2026.04.15 00:19
1,5,Environment Title[],Latitude[deg],Longitude[deg],Time Zone[],Elevation[m]
2,8,Day of Simulation[],Month[],Day of Month[],DST Indicator[1=yes 0=no],Hour[],StartMinute[],EndMinute[],DayType
3,5,Cumulative Day of Simulation[],Month[],Day of Month[],DST Indicator[1=yes 0=no],DayType  ! When Daily Meters Requested
4,2,Cumulative Days of Simulation[],Month[]  ! When Monthly Meters Requested
5,1,Cumulative Days of Simulation[] ! When Run Period Meters Requested
6,1,Calendar Year of Simulation[] ! When Annual Meters Requested
213,1,Electricity:Facility [J] !Hourly
5925,1,ElectricityNet:Facility [J] !Hourly
End of Data Dictionary
1,RUNPERIOD 1,  28.11, 112.79,   8.00, 120.00
2,1, 1, 1, 0, 1, 0.00,60.00,Sunday
213,76265568.31787384
5925,76265568.3178738
2,1, 1, 1, 0, 2, 0.00,60.00,Sunday
213,80572715.29681101
5925,80572715.296811
2,1, 1, 1, 0, 3, 0.00,60.00,Sunday
213,85363993.52992453
5925,85363993.52992451
2,1, 1, 1, 0, 4, 0.00,60.00,Sunday
213,78631759.83127949
5925,78631759.83127946
2,1, 1, 1, 0, 5, 0.00,60.00,Sunday
213,88612741.21547219
5925,88612741.21547218
2,1, 1, 1, 0, 6, 0.00,60.00,Sunday
213,115370815.0813182
5925,115370815.08131817
2,1, 1, 1, 0, 7, 0.00,60.00,Sunday
213,180921270.79059178
5925,180921270.79059178
2,1, 1, 1, 0, 8, 0.00,60.00,Sunday
213,184483012.15551743
5925,184483012.15551746
2,1, 1, 1, 0, 9, 0.00,60.00,Sunday
213,163736736.97383893
5925,163736736.97383887
2,1, 1, 1, 0,10, 0.00,60.00,Sunday
213,145057619.21145678
5925,145057619.21145678
2,1, 1, 1, 0,11, 0.00,60.00,Sunday
213,146520152.2053221
5925,146520152.20532206
2,1, 1, 1, 0,12, 0.00,60.00,Sunday
213,125218580.98103818
5925,125218580.98103817
2,1, 1, 1, 0,13, 0.00,60.00,Sunday
213,119563532.04330078
5925,119563532.04330078
2,1, 1, 1, 0,14, 0.00,60.00,Sunday
213,117288758.84516637
5925,117288758.84516636
2,1, 1, 1, 0,15, 0.00,60.00,Sunday
213,105550864.34292732
5925,105550864.34292732
2,1, 1, 1, 0,16, 0.00,60.00,Sunday
213,126518227.8387963
5925,126518227.83879629
2,1, 1, 1, 0,17, 0.00,60.00,Sunday
213,146998603.61467725
5925,146998603.61467725
2,1, 1, 1, 0,18, 0.00,60.00,Sunday
213,187831970.066201
5925,187831970.06620136
2,1, 1, 1, 0,19, 0.00,60.00,Sunday
213,225958473.11165133
5925,225958473.11165166
2,1, 1, 1, 0,20, 0.00,60.00,Sunday
213,209488033.47613627
5925,209488033.4761366
2,1, 1, 1, 0,21, 0.00,60.00,Sunday
213,212551576.36183324
5925,212551576.36183357
2,1, 1, 1, 0,22, 0.00,60.00,Sunday
213,183255257.7899979
5925,183255257.78999794
2,1, 1, 1, 0,23, 0.00,60.00,Sunday
213,153142586.5254709
5925,153142586.5254709
2,1, 1, 1, 0,24, 0.00,60.00,Sunday
213,115939326.48103741
5925,115939326.48103738
2,2, 1, 2, 0, 1, 0.00,60.00,Holiday
213,78309167.70929846
5925,78309167.70929843
2,2, 1, 2, 0, 2, 0.00,60.00,Holiday
213,91782705.31294753
5925,91782705.31294751
2,2, 1, 2, 0, 3, 0.00,60.00,Holiday
213,72383265.5734351
5925,72383265.57343508
2,2, 1, 2, 0, 4, 0.00,60.00,Holiday
213,78726211.58585729
5925,78726211.58585727
2,2, 1, 2, 0, 5, 0.00,60.00,Holiday
213,88715452.91538963
5925,88715452.9153896
2,2, 1, 2, 0, 6, 0.00,60.00,Holiday
213,115467713.90409577
5925,115467713.90409574
2,2, 1, 2, 0, 7, 0.00,60.00,Holiday
213,181076816.68311226
5925,181076816.68311226
2,2, 1, 2, 0, 8, 0.00,60.00,Holiday
213,185427181.0816028
5925,185427181.0816028
2,2, 1, 2, 0, 9, 0.00,60.00,Holiday
213,165005657.0003777
5925,165005657.00037768
2,2, 1, 2, 0,10, 0.00,60.00,Holiday
213,145104746.86787546
5925,145104746.8678755
2,2, 1, 2, 0,11, 0.00,60.00,Holiday
213,146255655.85477325
5925,146255655.85477322
2,2, 1, 2, 0,12, 0.00,60.00,Holiday
213,132234486.76665641
5925,132234486.76665641
2,2, 1, 2, 0,13, 0.00,60.00,Holiday
213,121308174.45747982
5925,121308174.45747979
2,2, 1, 2, 0,14, 0.00,60.00,Holiday
213,112461439.71512191
5925,112461439.7151219
2,2, 1, 2, 0,15, 0.00,60.00,Holiday
213,113967904.49968155
5925,113967904.49968155
2,2, 1, 2, 0,16, 0.00,60.00,Holiday
213,113260225.31368361
5925,113260225.3136836
2,2, 1, 2, 0,17, 0.00,60.00,Holiday
213,148901651.9064334
5925,148901651.90643337
2,2, 1, 2, 0,18, 0.00,60.00,Holiday
213,187375928.44726515
5925,187375928.44726545
2,2, 1, 2, 0,19, 0.00,60.00,Holiday
213,223272509.14735836
5925,223272509.14735866
2,2, 1, 2, 0,20, 0.00,60.00,Holiday
213,221064854.4463725
5925,221064854.44637278
2,2, 1, 2, 0,21, 0.00,60.00,Holiday
213,199338375.30115026
5925,199338375.3011506
2,2, 1, 2, 0,22, 0.00,60.00,Holiday
213,183307582.86277032
5925,183307582.86277032
2,2, 1, 2, 0,23, 0.00,60.00,Holiday
213,153986030.3976319
5925,153986030.39763194
2,2, 1, 2, 0,24, 0.00,60.00,Holiday
213,115348877.39999177
5925,115348877.39999175
2,3, 1, 3, 0, 1, 0.00,60.00,Tuesday
213,93123230.21784121
5925,93123230.21784118
2,3, 1, 3, 0, 2, 0.00,60.00,Tuesday
213,77359411.86688656
5925,77359411.86688656
2,3, 1, 3, 0, 3, 0.00,60.00,Tuesday
213,77817427.2522445
5925,77817427.25224449
2,3, 1, 3, 0, 4, 0.00,60.00,Tuesday
213,85917829.7037211
5925,85917829.70372108
2,3, 1, 3, 0, 5, 0.00,60.00,Tuesday
213,80235965.44395956
5925,80235965.44395952
2,3, 1, 3, 0, 6, 0.00,60.00,Tuesday
213,114897524.68453625
5925,114897524.68453623
2,3, 1, 3, 0, 7, 0.00,60.00,Tuesday
213,182287471.97185573
5925,182287471.97185576
2,3, 1, 3, 0, 8, 0.00,60.00,Tuesday
213,182085523.35198623
5925,182085523.35198623
2,3, 1, 3, 0, 9, 0.00,60.00,Tuesday
213,171459451.45252135
5925,171459451.45252135
2,3, 1, 3, 0,10, 0.00,60.00,Tuesday
213,157609920.31562752
5925,157609920.31562752
2,3, 1, 3, 0,11, 0.00,60.00,Tuesday
213,143894723.61709243
5925,143894723.6170924
2,3, 1, 3, 0,12, 0.00,60.00,Tuesday
213,133635374.74847125
5925,133635374.74847125
2,3, 1, 3, 0,13, 0.00,60.00,Tuesday
213,128233564.5194956
5925,128233564.51949564
2,3, 1, 3, 0,14, 0.00,60.00,Tuesday
213,113257472.72764519
5925,113257472.72764519
2,3, 1, 3, 0,15, 0.00,60.00,Tuesday
213,122194780.32967666
5925,122194780.32967663
2,3, 1, 3, 0,16, 0.00,60.00,Tuesday
213,127322601.09446321
5925,127322601.09446321
2,3, 1, 3, 0,17, 0.00,60.00,Tuesday
213,144346037.27157852
5925,144346037.27157852
2,3, 1, 3, 0,18, 0.00,60.00,Tuesday
213,199717009.07877588
5925,199717009.07877624
2,3, 1, 3, 0,19, 0.00,60.00,Tuesday
213,211654664.6973323
5925,211654664.69733268
2,3, 1, 3, 0,20, 0.00,60.00,Tuesday
213,220454939.90835285
5925,220454939.9083532
2,3, 1, 3, 0,21, 0.00,60.00,Tuesday
213,200674088.38334513
5925,200674088.38334543
2,3, 1, 3, 0,22, 0.00,60.00,Tuesday
213,180092393.43688264
5925,180092393.43688262
2,3, 1, 3, 0,23, 0.00,60.00,Tuesday
213,155889817.986351
5925,155889817.986351
2,3, 1, 3, 0,24, 0.00,60.00,Tuesday
213,115370283.66377792
5925,115370283.66377789
2,4, 1, 4, 0, 1, 0.00,60.00,Wednesday
213,93208711.27606572
5925,93208711.2760657
2,4, 1, 4, 0, 2, 0.00,60.00,Wednesday
213,79303031.92242685
5925,79303031.92242685
2,4, 1, 4, 0, 3, 0.00,60.00,Wednesday
213,84257539.91367647
5925,84257539.91367644
2,4, 1, 4, 0, 4, 0.00,60.00,Wednesday
213,79284698.61669925
5925,79284698.61669922
2,4, 1, 4, 0, 5, 0.00,60.00,Wednesday
213,79582546.87773931
5925,79582546.87773928
2,4, 1, 4, 0, 6, 0.00,60.00,Wednesday
213,115926806.50373903
5925,115926806.503739
2,4, 1, 4, 0, 7, 0.00,60.00,Wednesday
213,181415025.56288892
5925,181415025.56288892
2,4, 1, 4, 0, 8, 0.00,60.00,Wednesday
213,182194736.4508502
5925,182194736.4508502
2,4, 1, 4, 0, 9, 0.00,60.00,Wednesday
213,172809600.46185818
5925,172809600.46185818
2,4, 1, 4, 0,10, 0.00,60.00,Wednesday
213,159888667.80954084
5925,159888667.80954084
2,4, 1, 4, 0,11, 0.00,60.00,Wednesday
213,140678088.8228866
5925,140678088.8228866
2,4, 1, 4, 0,12, 0.00,60.00,Wednesday
213,132959518.40125452
5925,132959518.40125453
2,4, 1, 4, 0,13, 0.00,60.00,Wednesday
213,127857341.5585901
5925,127857341.55859008
2,4, 1, 4, 0,14, 0.00,60.00,Wednesday
213,126027210.90346387
5925,126027210.90346387
2,4, 1, 4, 0,15, 0.00,60.00,Wednesday
213,108470413.2618721
5925,108470413.26187208
2,4, 1, 4, 0,16, 0.00,60.00,Wednesday
213,130470407.50528991
5925,130470407.5052899
2,4, 1, 4, 0,17, 0.00,60.00,Wednesday
213,151536184.80220172
5925,151536184.8022017
2,4, 1, 4, 0,18, 0.00,60.00,Wednesday
213,188363312.2202111
5925,188363312.22021142
2,4, 1, 4, 0,19, 0.00,60.00,Wednesday
213,222985038.4781832
5925,222985038.47818354
2,4, 1, 4, 0,20, 0.00,60.00,Wednesday
213,208695870.58036387
5925,208695870.5803642
2,4, 1, 4, 0,21, 0.00,60.00,Wednesday
213,209599787.8156895
5925,209599787.81568986
2,4, 1, 4, 0,22, 0.00,60.00,Wednesday
213,181921496.92589524
5925,181921496.9258952
2,4, 1, 4, 0,23, 0.00,60.00,Wednesday
213,144889191.0277498
5925,144889191.0277498
2,4, 1, 4, 0,24, 0.00,60.00,Wednesday
213,124924275.72218807
5925,124924275.72218803
2,5, 1, 5, 0, 1, 0.00,60.00,Thursday
213,83393289.05047093
5925,83393289.0504709
2,5, 1, 5, 0, 2, 0.00,60.00,Thursday
213,87883954.31888504
5925,87883954.31888503
2,5, 1, 5, 0, 3, 0.00,60.00,Thursday
213,78467729.55242884
5925,78467729.55242883
2,5, 1, 5, 0, 4, 0.00,60.00,Thursday
213,75388703.844257
5925,75388703.84425697
2,5, 1, 5, 0, 5, 0.00,60.00,Thursday
213,91392132.01935327
5925,91392132.01935326
2,5, 1, 5, 0, 6, 0.00,60.00,Thursday
213,115698413.04899497
5925,115698413.04899496
2,5, 1, 5, 0, 7, 0.00,60.00,Thursday
213,180945283.96112165
5925,180945283.96112162
2,5, 1, 5, 0, 8, 0.00,60.00,Thursday
213,182344558.39356232
5925,182344558.39356232
2,5, 1, 5, 0, 9, 0.00,60.00,Thursday
213,170299530.71466237
5925,170299530.71466234
2,5, 1, 5, 0,10, 0.00,60.00,Thursday
213,148657012.0105844
5925,148657012.0105844
2,5, 1, 5, 0,11, 0.00,60.00,Thursday
213,152719876.92483288
5925,152719876.92483288
2,5, 1, 5, 0,12, 0.00,60.00,Thursday
213,132758736.91496909
5925,132758736.91496906
2,5, 1, 5, 0,13, 0.00,60.00,Thursday
213,116133005.32070139
5925,116133005.32070139
2,5, 1, 5, 0,14, 0.00,60.00,Thursday
213,124701424.25695224
5925,124701424.25695223
2,5, 1, 5, 0,15, 0.00,60.00,Thursday
213,117782842.54070511
5925,117782842.54070508
2,5, 1, 5, 0,16, 0.00,60.00,Thursday
213,120348681.72902906
5925,120348681.72902904
2,5, 1, 5, 0,17, 0.00,60.00,Thursday
213,152114116.39536166
5925,152114116.39536163
2,5, 1, 5, 0,18, 0.00,60.00,Thursday
213,186740358.44842246
5925,186740358.4484228
2,5, 1, 5, 0,19, 0.00,60.00,Thursday
213,224063818.63684392
5925,224063818.63684422
2,5, 1, 5, 0,20, 0.00,60.00,Thursday
213,216704784.440947
5925,216704784.4409473
2,5, 1, 5, 0,21, 0.00,60.00,Thursday
213,203572904.27297953
5925,203572904.27297983
2,5, 1, 5, 0,22, 0.00,60.00,Thursday
213,181170806.7396389
5925,181170806.73963887
2,5, 1, 5, 0,23, 0.00,60.00,Thursday
213,154653147.67976725
5925,154653147.67976722
2,5, 1, 5, 0,24, 0.00,60.00,Thursday
213,115512073.07703227
5925,115512073.07703227
2,6, 1, 6, 0, 1, 0.00,60.00,Friday
213,81105177.48108734
5925,81105177.48108733
2,6, 1, 6, 0, 2, 0.00,60.00,Friday
213,88127160.76734722
5925,88127160.7673472
2,6, 1, 6, 0, 3, 0.00,60.00,Friday
213,75475987.90964268
5925,75475987.90964267
2,6, 1, 6, 0, 4, 0.00,60.00,Friday
213,80962993.20763196
5925,80962993.20763192
2,6, 1, 6, 0, 5, 0.00,60.00,Friday
213,84003775.96351162
5925,84003775.9635116
2,6, 1, 6, 0, 6, 0.00,60.00,Friday
213,115150499.40737231
5925,115150499.40737231
2,6, 1, 6, 0, 7, 0.00,60.00,Friday
213,181074829.67244998
5925,181074829.67244995
2,6, 1, 6, 0, 8, 0.00,60.00,Friday
213,183305025.94275838
5925,183305025.94275838
2,6, 1, 6, 0, 9, 0.00,60.00,Friday
213,170658837.55238083
5925,170658837.55238086
2,6, 1, 6, 0,10, 0.00,60.00,Friday
213,153301618.85642636
5925,153301618.8564264
2,6, 1, 6, 0,11, 0.00,60.00,Friday
213,145939768.31518728
5925,145939768.31518725
2,6, 1, 6, 0,12, 0.00,60.00,Friday
213,139799003.7220448
5925,139799003.72204477
2,6, 1, 6, 0,13, 0.00,60.00,Friday
213,135466242.62480262
5925,135466242.62480265
2,6, 1, 6, 0,14, 0.00,60.00,Friday
213,127539901.14918137
5925,127539901.14918135
2,6, 1, 6, 0,15, 0.00,60.00,Friday
213,134012528.6947058
5925,134012528.69470577
2,6, 1, 6, 0,16, 0.00,60.00,Friday
213,134696540.8523028
5925,134696540.8523028
2,6, 1, 6, 0,17, 0.00,60.00,Friday
213,165077813.40992093
5925,165077813.40992093
2,6, 1, 6, 0,18, 0.00,60.00,Friday
213,196609256.82753956
5925,196609256.82753986
2,6, 1, 6, 0,19, 0.00,60.00,Friday
213,220688607.1593785
5925,220688607.15937877
2,6, 1, 6, 0,20, 0.00,60.00,Friday
213,219205912.76989943
5925,219205912.76989976
2,6, 1, 6, 0,21, 0.00,60.00,Friday
213,203834396.0346027
5925,203834396.034603
2,6, 1, 6, 0,22, 0.00,60.00,Friday
213,180395703.56942183
5925,180395703.5694218
2,6, 1, 6, 0,23, 0.00,60.00,Friday
213,153978553.47123468
5925,153978553.47123468
2,6, 1, 6, 0,24, 0.00,60.00,Friday
213,114689817.60866189
5925,114689817.60866188
2,7, 1, 7, 0, 1, 0.00,60.00,Saturday
213,88929947.46303229
5925,88929947.46303225
2,7, 1, 7, 0, 2, 0.00,60.00,Saturday
213,82040102.45228007
5925,82040102.45228006
2,7, 1, 7, 0, 3, 0.00,60.00,Saturday
213,77035001.05744494
5925,77035001.05744493
2,7, 1, 7, 0, 4, 0.00,60.00,Saturday
213,83194747.38095857
5925,83194747.38095856
2,7, 1, 7, 0, 5, 0.00,60.00,Saturday
213,80769606.32600833
5925,80769606.32600833
2,7, 1, 7, 0, 6, 0.00,60.00,Saturday
213,115476062.04672332
5925,115476062.0467233
2,7, 1, 7, 0, 7, 0.00,60.00,Saturday
213,181146883.20702222
5925,181146883.2070222
2,7, 1, 7, 0, 8, 0.00,60.00,Saturday
213,181656535.43190646
5925,181656535.43190646
2,7, 1, 7, 0, 9, 0.00,60.00,Saturday
213,168494403.33209097
5925,168494403.33209094
2,7, 1, 7, 0,10, 0.00,60.00,Saturday
213,152867535.8462078
5925,152867535.84620777
2,7, 1, 7, 0,11, 0.00,60.00,Saturday
213,138861470.98507527
5925,138861470.98507524
2,7, 1, 7, 0,12, 0.00,60.00,Saturday
213,132532592.48627454
5925,132532592.48627453
2,7, 1, 7, 0,13, 0.00,60.00,Saturday
213,131933500.26783459
5925,131933500.26783459
2,7, 1, 7, 0,14, 0.00,60.00,Saturday
213,123679444.8303046
5925,123679444.83030458
2,7, 1, 7, 0,15, 0.00,60.00,Saturday
213,121076586.02804026
5925,121076586.02804025
2,7, 1, 7, 0,16, 0.00,60.00,Saturday
213,131855627.56297714
5925,131855627.56297712
2,7, 1, 7, 0,17, 0.00,60.00,Saturday
213,155718226.27391702
5925,155718226.27391702
2,7, 1, 7, 0,18, 0.00,60.00,Saturday
213,198208947.42029956
5925,198208947.4202999
2,7, 1, 7, 0,19, 0.00,60.00,Saturday
213,221199959.0786888
5925,221199959.07868913
2,7, 1, 7, 0,20, 0.00,60.00,Saturday
213,218625822.41996142
5925,218625822.41996175
2,7, 1, 7, 0,21, 0.00,60.00,Saturday
213,207423730.74220598
5925,207423730.74220628
2,7, 1, 7, 0,22, 0.00,60.00,Saturday
213,182721612.42549545
5925,182721612.42549545
2,7, 1, 7, 0,23, 0.00,60.00,Saturday
213,150832558.42471048
5925,150832558.42471048
2,7, 1, 7, 0,24, 0.00,60.00,Saturday
213,117782411.26411366
5925,117782411.26411366
2,8, 1, 8, 0, 1, 0.00,60.00,Sunday
213,89565118.98100588
5925,89565118.98100588
2,8, 1, 8, 0, 2, 0.00,60.00,Sunday
213,78621436.22723015
5925,78621436.22723015
2,8, 1, 8, 0, 3, 0.00,60.00,Sunday
213,80606365.41648464
5925,80606365.41648464
2,8, 1, 8, 0, 4, 0.00,60.00,Sunday
213,77570822.29899198
5925,77570822.29899195
2,8, 1, 8, 0, 5, 0.00,60.00,Sunday
213,87645227.97313362
5925,87645227.97313361
2,8, 1, 8, 0, 6, 0.00,60.00,Sunday
213,113185391.83628291
5925,113185391.8362829
2,8, 1, 8, 0, 7, 0.00,60.00,Sunday
213,183345972.3492578
5925,183345972.34925777
2,8, 1, 8, 0, 8, 0.00,60.00,Sunday
213,180986199.2355091
5925,180986199.2355091
2,8, 1, 8, 0, 9, 0.00,60.00,Sunday
213,166532830.96825853
5925,166532830.96825853
2,8, 1, 8, 0,10, 0.00,60.00,Sunday
213,152598370.66752225
5925,152598370.66752228
2,8, 1, 8, 0,11, 0.00,60.00,Sunday
213,150423744.70577937
5925,150423744.70577937
2,8, 1, 8, 0,12, 0.00,60.00,Sunday
213,141804833.4977322
5925,141804833.49773216
2,8, 1, 8, 0,13, 0.00,60.00,Sunday
213,141041673.7167136
5925,141041673.71671358
2,8, 1, 8, 0,14, 0.00,60.00,Sunday
213,138891663.24635458
5925,138891663.24635458
2,8, 1, 8, 0,15, 0.00,60.00,Sunday
213,136393060.54050022
5925,136393060.54050022
2,8, 1, 8, 0,16, 0.00,60.00,Sunday
213,141778028.1437142
5925,141778028.1437142
2,8, 1, 8, 0,17, 0.00,60.00,Sunday
213,163245095.221425
5925,163245095.221425
2,8, 1, 8, 0,18, 0.00,60.00,Sunday
213,201889988.21286714
5925,201889988.21286738
2,8, 1, 8, 0,19, 0.00,60.00,Sunday
213,230118090.83754727
5925,230118090.83754763
2,8, 1, 8, 0,20, 0.00,60.00,Sunday
213,225477072.7070952
5925,225477072.7070955
2,8, 1, 8, 0,21, 0.00,60.00,Sunday
213,209951497.6013658
5925,209951497.60136613
2,8, 1, 8, 0,22, 0.00,60.00,Sunday
213,182443690.16834158
5925,182443690.1683417
2,8, 1, 8, 0,23, 0.00,60.00,Sunday
213,158758503.2969189
5925,158758503.29691887
2,8, 1, 8, 0,24, 0.00,60.00,Sunday
213,117314402.78156805
5925,117314402.78156805
2,9, 1, 9, 0, 1, 0.00,60.00,Monday
213,86092458.65112163
5925,86092458.65112162
2,9, 1, 9, 0, 2, 0.00,60.00,Monday
213,86465097.89141499
5925,86465097.89141497
2,9, 1, 9, 0, 3, 0.00,60.00,Monday
213,76202497.3829648
5925,76202497.38296477
2,9, 1, 9, 0, 4, 0.00,60.00,Monday
213,80172574.94268739
5925,80172574.94268736
2,9, 1, 9, 0, 5, 0.00,60.00,Monday
213,82324624.10546091
5925,82324624.10546088
2,9, 1, 9, 0, 6, 0.00,60.00,Monday
213,115322022.42947997
5925,115322022.42947996
2,9, 1, 9, 0, 7, 0.00,60.00,Monday
213,181063194.49517566
5925,181063194.49517563
2,9, 1, 9, 0, 8, 0.00,60.00,Monday
213,183713149.15358868
5925,183713149.15358865
2,9, 1, 9, 0, 9, 0.00,60.00,Monday
213,171405116.18150482
5925,171405116.18150482
2,9, 1, 9, 0,10, 0.00,60.00,Monday
213,160739061.76273796
5925,160739061.76273796
2,9, 1, 9, 0,11, 0.00,60.00,Monday
213,151871253.77582145
5925,151871253.77582145
2,9, 1, 9, 0,12, 0.00,60.00,Monday
213,153030736.7153328
5925,153030736.71533284
2,9, 1, 9, 0,13, 0.00,60.00,Monday
213,154562792.7815723
5925,154562792.7815723
2,9, 1, 9, 0,14, 0.00,60.00,Monday
213,142411656.02412423
5925,142411656.02412423
2,9, 1, 9, 0,15, 0.00,60.00,Monday
213,140063381.78207415
5925,140063381.78207415
2,9, 1, 9, 0,16, 0.00,60.00,Monday
213,149468630.97314763
5925,149468630.97314763
2,9, 1, 9, 0,17, 0.00,60.00,Monday
213,172347008.61806893
5925,172347008.61806893
2,9, 1, 9, 0,18, 0.00,60.00,Monday
213,204000065.89699268
5925,204000065.89699304
2,9, 1, 9, 0,19, 0.00,60.00,Monday
213,229621247.91921836
5925,229621247.91921872
2,9, 1, 9, 0,20, 0.00,60.00,Monday
213,226431952.89316893
5925,226431952.89316928
2,9, 1, 9, 0,21, 0.00,60.00,Monday
213,208982431.44748247
5925,208982431.44748273
2,9, 1, 9, 0,22, 0.00,60.00,Monday
213,189408108.185114
5925,189408108.18511418
2,9, 1, 9, 0,23, 0.00,60.00,Monday
213,156713859.85009277
5925,156713859.8500928
2,9, 1, 9, 0,24, 0.00,60.00,Monday
213,116870120.04789865
5925,116870120.04789864
2,10, 1,10, 0, 1, 0.00,60.00,Tuesday
213,93065240.55619085
5925,93065240.55619082
2,10, 1,10, 0, 2, 0.00,60.00,Tuesday
213,77043664.98359779
5925,77043664.98359779
2,10, 1,10, 0, 3, 0.00,60.00,Tuesday
213,86075435.42005152
5925,86075435.42005152
2,10, 1,10, 0, 4, 0.00,60.00,Tuesday
213,75695679.47151676
5925,75695679.47151673
2,10, 1,10, 0, 5, 0.00,60.00,Tuesday
213,82359647.84408446
5925,82359647.84408443
2,10, 1,10, 0, 6, 0.00,60.00,Tuesday
213,115229345.83371323
5925,115229345.83371323
2,10, 1,10, 0, 7, 0.00,60.00,Tuesday
213,181257824.74543887
5925,181257824.74543884
2,10, 1,10, 0, 8, 0.00,60.00,Tuesday
213,183799014.3135229
5925,183799014.3135229
2,10, 1,10, 0, 9, 0.00,60.00,Tuesday
213,168770383.98805317
5925,168770383.98805314
2,10, 1,10, 0,10, 0.00,60.00,Tuesday
213,162255692.87073508
5925,162255692.87073502
2,10, 1,10, 0,11, 0.00,60.00,Tuesday
213,155008906.33421323
5925,155008906.33421323
2,10, 1,10, 0,12, 0.00,60.00,Tuesday
213,156131785.6665317
5925,156131785.6665317
2,10, 1,10, 0,13, 0.00,60.00,Tuesday
213,150705363.63879928
5925,150705363.63879928
2,10, 1,10, 0,14, 0.00,60.00,Tuesday
213,147657039.80490252
5925,147657039.80490255
2,10, 1,10, 0,15, 0.00,60.00,Tuesday
213,142339316.50793588
5925,142339316.50793585
2,10, 1,10, 0,16, 0.00,60.00,Tuesday
213,153088547.77910063
5925,153088547.77910063
2,10, 1,10, 0,17, 0.00,60.00,Tuesday
213,179787438.27865565
5925,179787438.27865565
2,10, 1,10, 0,18, 0.00,60.00,Tuesday
213,206546383.35429448
5925,206546383.35429478
2,10, 1,10, 0,19, 0.00,60.00,Tuesday
213,237616573.29746726
5925,237616573.2974676
2,10, 1,10, 0,20, 0.00,60.00,Tuesday
213,219923428.44331664
5925,219923428.44331694
2,10, 1,10, 0,21, 0.00,60.00,Tuesday
213,225080731.3265562
5925,225080731.3265565
2,10, 1,10, 0,22, 0.00,60.00,Tuesday
213,187058874.5927541
5925,187058874.59275424
2,10, 1,10, 0,23, 0.00,60.00,Tuesday
213,158419211.40131542
5925,158419211.4013154
2,10, 1,10, 0,24, 0.00,60.00,Tuesday
213,125018591.91621184
5925,125018591.91621181
2,11, 1,11, 0, 1, 0.00,60.00,Wednesday
213,88186894.45945697
5925,88186894.45945694
2,11, 1,11, 0, 2, 0.00,60.00,Wednesday
213,90860733.5732246
5925,90860733.5732246
2,11, 1,11, 0, 3, 0.00,60.00,Wednesday
213,78777494.6564062
5925,78777494.6564062
2,11, 1,11, 0, 4, 0.00,60.00,Wednesday
213,76662188.35038541
5925,76662188.35038537
2,11, 1,11, 0, 5, 0.00,60.00,Wednesday
213,93045432.07302856
5925,93045432.07302855
2,11, 1,11, 0, 6, 0.00,60.00,Wednesday
213,116928848.62354206
5925,116928848.62354204
2,11, 1,11, 0, 7, 0.00,60.00,Wednesday
213,182698126.4267983
5925,182698126.4267983
2,11, 1,11, 0, 8, 0.00,60.00,Wednesday
213,185716080.76714683
5925,185716080.7671468
2,11, 1,11, 0, 9, 0.00,60.00,Wednesday
213,174728590.81354755
5925,174728590.81354755
2,11, 1,11, 0,10, 0.00,60.00,Wednesday
213,152130328.22021112
5925,152130328.22021103
2,11, 1,11, 0,11, 0.00,60.00,Wednesday
213,154100216.46270555
5925,154100216.46270555
2,11, 1,11, 0,12, 0.00,60.00,Wednesday
213,136301260.44127822
5925,136301260.44127822
2,11, 1,11, 0,13, 0.00,60.00,Wednesday
213,128269892.74373655
5925,128269892.74373655
2,11, 1,11, 0,14, 0.00,60.00,Wednesday
213,123542785.00306813
5925,123542785.00306812
2,11, 1,11, 0,15, 0.00,60.00,Wednesday
213,118466317.50466458
5925,118466317.50466456
2,11, 1,11, 0,16, 0.00,60.00,Wednesday
213,123316986.1397838
5925,123316986.13978378
2,11, 1,11, 0,17, 0.00,60.00,Wednesday
213,153309086.15833744
5925,153309086.15833738
2,11, 1,11, 0,18, 0.00,60.00,Wednesday
213,190964625.92333445
5925,190964625.92333478
2,11, 1,11, 0,19, 0.00,60.00,Wednesday
213,225504478.46530682
5925,225504478.4653071
2,11, 1,11, 0,20, 0.00,60.00,Wednesday
213,223463900.1164083
5925,223463900.11640865
2,11, 1,11, 0,21, 0.00,60.00,Wednesday
213,204639365.64572674
5925,204639365.64572704
2,11, 1,11, 0,22, 0.00,60.00,Wednesday
213,185592156.90455228
5925,185592156.90455234
2,11, 1,11, 0,23, 0.00,60.00,Wednesday
213,151678176.55594844
5925,151678176.5559484
2,11, 1,11, 0,24, 0.00,60.00,Wednesday
213,114858655.921207
5925,114858655.921207
2,12, 1,12, 0, 1, 0.00,60.00,Thursday
213,88914864.02728677
5925,88914864.02728675
2,12, 1,12, 0, 2, 0.00,60.00,Thursday
213,80211918.8348234
5925,80211918.8348234
2,12, 1,12, 0, 3, 0.00,60.00,Thursday
213,79814182.32180685
5925,79814182.32180683
2,12, 1,12, 0, 4, 0.00,60.00,Thursday
213,81817560.35324666
5925,81817560.35324663
2,12, 1,12, 0, 5, 0.00,60.00,Thursday
213,83123972.56061317
5925,83123972.56061316
2,12, 1,12, 0, 6, 0.00,60.00,Thursday
213,111630535.11559317
5925,111630535.1155931
2,12, 1,12, 0, 7, 0.00,60.00,Thursday
213,183645380.1085715
5925,183645380.1085715
2,12, 1,12, 0, 8, 0.00,60.00,Thursday
213,182109958.1840325
5925,182109958.1840325
2,12, 1,12, 0, 9, 0.00,60.00,Thursday
213,167494998.04663748
5925,167494998.0466375
2,12, 1,12, 0,10, 0.00,60.00,Thursday
213,160457033.51929358
5925,160457033.51929355
2,12, 1,12, 0,11, 0.00,60.00,Thursday
213,141846119.5200739
5925,141846119.5200739
2,12, 1,12, 0,12, 0.00,60.00,Thursday
213,135261158.3681132
5925,135261158.3681132
2,12, 1,12, 0,13, 0.00,60.00,Thursday
213,126214540.24575001
5925,126214540.24575
2,12, 1,12, 0,14, 0.00,60.00,Thursday
213,123597773.29489733
5925,123597773.29489735
2,12, 1,12, 0,15, 0.00,60.00,Thursday
213,114666521.93898052
5925,114666521.93898049
2,12, 1,12, 0,16, 0.00,60.00,Thursday
213,127376829.92810783
5925,127376829.9281078
2,12, 1,12, 0,17, 0.00,60.00,Thursday
213,150131072.5744618
5925,150131072.57446173
2,12, 1,12, 0,18, 0.00,60.00,Thursday
213,188028442.6848595
5925,188028442.6848598
2,12, 1,12, 0,19, 0.00,60.00,Thursday
213,224661554.3196335
5925,224661554.31963384
2,12, 1,12, 0,20, 0.00,60.00,Thursday
213,212004204.44424188
5925,212004204.44424218
2,12, 1,12, 0,21, 0.00,60.00,Thursday
213,210264855.7847899
5925,210264855.78479022
2,12, 1,12, 0,22, 0.00,60.00,Thursday
213,179501773.60613695
5925,179501773.60613692
2,12, 1,12, 0,23, 0.00,60.00,Thursday
213,150898381.39825362
5925,150898381.39825362
2,12, 1,12, 0,24, 0.00,60.00,Thursday
213,118960380.6806789
5925,118960380.68067889
2,13, 1,13, 0, 1, 0.00,60.00,Friday
213,82388786.75356297
5925,82388786.75356296
2,13, 1,13, 0, 2, 0.00,60.00,Friday
213,86644969.05325738
5925,86644969.05325736
2,13, 1,13, 0, 3, 0.00,60.00,Friday
213,78422484.9473879
5925,78422484.94738787
2,13, 1,13, 0, 4, 0.00,60.00,Friday
213,78656737.15852486
5925,78656737.15852484
2,13, 1,13, 0, 5, 0.00,60.00,Friday
213,87897214.31040505
5925,87897214.31040502
2,13, 1,13, 0, 6, 0.00,60.00,Friday
213,116136004.89448072
5925,116136004.8944807
2,13, 1,13, 0, 7, 0.00,60.00,Friday
213,180465163.91009218
5925,180465163.91009218
2,13, 1,13, 0, 8, 0.00,60.00,Friday
213,186189022.49161077
5925,186189022.49161077
2,13, 1,13, 0, 9, 0.00,60.00,Friday
213,168844133.59820315
5925,168844133.59820315
2,13, 1,13, 0,10, 0.00,60.00,Friday
213,151520723.70703158
5925,151520723.7070316
2,13, 1,13, 0,11, 0.00,60.00,Friday
213,148497694.88734156
5925,148497694.88734153
2,13, 1,13, 0,12, 0.00,60.00,Friday
213,136720340.93816668
5925,136720340.93816665
2,13, 1,13, 0,13, 0.00,60.00,Friday
213,124213202.43932357
5925,124213202.43932356
2,13, 1,13, 0,14, 0.00,60.00,Friday
213,116409256.96102796
5925,116409256.96102795
2,13, 1,13, 0,15, 0.00,60.00,Friday
213,117324013.15391925
5925,117324013.15391923
2,13, 1,13, 0,16, 0.00,60.00,Friday
213,118020443.9569364
5925,118020443.95693639
2,13, 1,13, 0,17, 0.00,60.00,Friday
213,155895037.03361723
5925,155895037.0336172
2,13, 1,13, 0,18, 0.00,60.00,Friday
213,194842239.02293366
5925,194842239.02293396
2,13, 1,13, 0,19, 0.00,60.00,Friday
213,217139324.83676267
5925,217139324.836763
2,13, 1,13, 0,20, 0.00,60.00,Friday
213,217051543.06436998
5925,217051543.06437027
2,13, 1,13, 0,21, 0.00,60.00,Friday
213,203977524.37877965
5925,203977524.37877998
2,13, 1,13, 0,22, 0.00,60.00,Friday
213,178341600.0021948
5925,178341600.00219476
2,13, 1,13, 0,23, 0.00,60.00,Friday
213,154487380.86120367
5925,154487380.8612037
2,13, 1,13, 0,24, 0.00,60.00,Friday
213,114440832.0293218
5925,114440832.02932177
2,14, 1,14, 0, 1, 0.00,60.00,Saturday
213,95444461.21843049
5925,95444461.21843044
2,14, 1,14, 0, 2, 0.00,60.00,Saturday
213,79941534.68851672
5925,79941534.6885167
2,14, 1,14, 0, 3, 0.00,60.00,Saturday
213,77408383.95627758
5925,77408383.95627758
2,14, 1,14, 0, 4, 0.00,60.00,Saturday
213,81323922.33788702
5925,81323922.33788699
2,14, 1,14, 0, 5, 0.00,60.00,Saturday
213,82589210.27591477
5925,82589210.27591477
2,14, 1,14, 0, 6, 0.00,60.00,Saturday
213,115490106.90524083
5925,115490106.90524083
2,14, 1,14, 0, 7, 0.00,60.00,Saturday
213,181137753.48866144
5925,181137753.4886614
2,14, 1,14, 0, 8, 0.00,60.00,Saturday
213,179432642.661969
5925,179432642.661969
2,14, 1,14, 0, 9, 0.00,60.00,Saturday
213,171057229.68610963
5925,171057229.6861096
2,14, 1,14, 0,10, 0.00,60.00,Saturday
213,153474263.63791433
5925,153474263.6379143
2,14, 1,14, 0,11, 0.00,60.00,Saturday
213,137582985.79702708
5925,137582985.79702705
2,14, 1,14, 0,12, 0.00,60.00,Saturday
213,126999774.52845795
5925,126999774.52845795
2,14, 1,14, 0,13, 0.00,60.00,Saturday
213,129691702.953819
5925,129691702.953819
2,14, 1,14, 0,14, 0.00,60.00,Saturday
213,120027519.72719046
5925,120027519.72719046
2,14, 1,14, 0,15, 0.00,60.00,Saturday
213,102535234.41582212
5925,102535234.4158221
2,14, 1,14, 0,16, 0.00,60.00,Saturday
213,126337491.59245828
5925,126337491.59245828
2,14, 1,14, 0,17, 0.00,60.00,Saturday
213,147833576.50958106
5925,147833576.50958106
2,14, 1,14, 0,18, 0.00,60.00,Saturday
213,187685922.80451554
5925,187685922.80451587
2,14, 1,14, 0,19, 0.00,60.00,Saturday
213,223816533.92515296
5925,223816533.9251533
2,14, 1,14, 0,20, 0.00,60.00,Saturday
213,209733998.39088988
5925,209733998.39089024
2,14, 1,14, 0,21, 0.00,60.00,Saturday
213,212128959.48927316
5925,212128959.48927343
2,14, 1,14, 0,22, 0.00,60.00,Saturday
213,181875831.08053392
5925,181875831.08053392
2,14, 1,14, 0,23, 0.00,60.00,Saturday
213,148061886.32782176
5925,148061886.3278218
2,14, 1,14, 0,24, 0.00,60.00,Saturday
213,117900382.72797148
5925,117900382.72797148
2,15, 1,15, 0, 1, 0.00,60.00,Sunday
213,86087934.62913674
5925,86087934.6291367
2,15, 1,15, 0, 2, 0.00,60.00,Sunday
213,84899857.43957344
5925,84899857.4395734
2,15, 1,15, 0, 3, 0.00,60.00,Sunday
213,81032847.24302997
5925,81032847.24302995
2,15, 1,15, 0, 4, 0.00,60.00,Sunday
213,74302283.87845623
5925,74302283.87845622
2,15, 1,15, 0, 5, 0.00,60.00,Sunday
213,92967005.48473002
5925,92967005.48473
2,15, 1,15, 0, 6, 0.00,60.00,Sunday
213,110185084.30047438
5925,110185084.30047438
2,15, 1,15, 0, 7, 0.00,60.00,Sunday
213,185759422.47345054
5925,185759422.47345054
2,15, 1,15, 0, 8, 0.00,60.00,Sunday
213,179657318.6750866
5925,179657318.6750866
2,15, 1,15, 0, 9, 0.00,60.00,Sunday
213,167759040.15191364
5925,167759040.15191364
2,15, 1,15, 0,10, 0.00,60.00,Sunday
213,150064672.8818879
5925,150064672.8818879
2,15, 1,15, 0,11, 0.00,60.00,Sunday
213,145151705.4013412
5925,145151705.40134117
2,15, 1,15, 0,12, 0.00,60.00,Sunday
213,127043127.28307578
5925,127043127.28307578
2,15, 1,15, 0,13, 0.00,60.00,Sunday
213,122284929.40239058
5925,122284929.40239054
2,15, 1,15, 0,14, 0.00,60.00,Sunday
213,113348416.7103911
5925,113348416.71039109
2,15, 1,15, 0,15, 0.00,60.00,Sunday
213,114979595.85417
5925,114979595.85416995
2,15, 1,15, 0,16, 0.00,60.00,Sunday
213,121921294.31064749
5925,121921294.31064746
2,15, 1,15, 0,17, 0.00,60.00,Sunday
213,143498033.86054286
5925,143498033.86054286
2,15, 1,15, 0,18, 0.00,60.00,Sunday
213,190266383.5320918
5925,190266383.53209215