Program Version,EnergyPlus, Version 26.1.0-6f2e40d102, YMD=2026.04.15 00:15
1,5,Environment Title[],Latitude[deg],Longitude[deg],Time Zone[],Elevation[m]
2,8,Day of Simulation[],Month[],Day of Month[],DST Indicator[1=yes 0=no],Hour[],StartMinute[],EndMinute[],DayType
3,5,Cumulative Day of Simulation[],Month[],Day of Month[],DST Indicator[1=yes 0=no],DayType  ! When Daily Meters Requested
4,2,Cumulative Days of Simulation[],Month[]  ! When Monthly Meters Requested
5,1,Cumulative Days of Simulation[] ! When Run Period Meters Requested
6,1,Calendar Year of Simulation[] ! When Annual Meters Requested
213,1,Electricity:Facility [J] !Hourly
5925,1,ElectricityNet:Facility [J] !Hourly
End of Data Dictionary
1,RUNPERIOD 1,  28.11, 112.79,   8.00, 120.00
2,1, 1, 1, 0, 1, 0.00,60.00,Sunday
213,86423641.29287939
5925,86423641.29287939
2,1, 1, 1, 0, 2, 0.00,60.00,Sunday
213,90101733.36594601
5925,90101733.365946
2,1, 1, 1, 0, 3, 0.00,60.00,Sunday
213,95011064.23162077
5925,95011064.23162076
2,1, 1, 1, 0, 4, 0.00,60.00,Sunday
213,88345674.2457913
5925,88345674.24579132
2,1, 1, 1, 0, 5, 0.00,60.00,Sunday
213,98308344.32776174
5925,98308344.32776174
2,1, 1, 1, 0, 6, 0.00,60.00,Sunday
213,124986377.08787276
5925,124986377.08787274
2,1, 1, 1, 0, 7, 0.00,60.00,Sunday
213,190273989.50011083
5925,190273989.50011086
2,1, 1, 1, 0, 8, 0.00,60.00,Sunday
213,194190913.52839136
5925,194190913.52839133
2,1, 1, 1, 0, 9, 0.00,60.00,Sunday
213,174088297.54003257
5925,174088297.54003257
2,1, 1, 1, 0,10, 0.00,60.00,Sunday
213,154399703.76340565
5925,154399703.76340565
2,1, 1, 1, 0,11, 0.00,60.00,Sunday
213,155293581.22538313
5925,155293581.2253831
2,1, 1, 1, 0,12, 0.00,60.00,Sunday
213,137217553.8586778
5925,137217553.8586778
2,1, 1, 1, 0,13, 0.00,60.00,Sunday
213,126264106.30843586
5925,126264106.30843583
2,1, 1, 1, 0,14, 0.00,60.00,Sunday
213,131476458.73881572
5925,131476458.73881571
2,1, 1, 1, 0,15, 0.00,60.00,Sunday
213,111044329.37255001
5925,111044329.37255001
2,1, 1, 1, 0,16, 0.00,60.00,Sunday
213,136989234.1706778
5925,136989234.17067784
2,1, 1, 1, 0,17, 0.00,60.00,Sunday
213,156655142.166154
5925,156655142.166154
2,1, 1, 1, 0,18, 0.00,60.00,Sunday
213,197273403.93497184
5925,197273403.93497217
2,1, 1, 1, 0,19, 0.00,60.00,Sunday
213,235252706.07477152
5925,235252706.07477185
2,1, 1, 1, 0,20, 0.00,60.00,Sunday
213,218828868.6642965
5925,218828868.66429693
2,1, 1, 1, 0,21, 0.00,60.00,Sunday
213,221936107.50844604
5925,221936107.5084464
2,1, 1, 1, 0,22, 0.00,60.00,Sunday
213,192755012.9044737
5925,192755012.90447384
2,1, 1, 1, 0,23, 0.00,60.00,Sunday
213,163647853.43134412
5925,163647853.43134412
2,1, 1, 1, 0,24, 0.00,60.00,Sunday
213,125717212.57445614
5925,125717212.57445613
2,2, 1, 2, 0, 1, 0.00,60.00,Holiday
213,94016961.10029013
5925,94016961.10029012
2,2, 1, 2, 0, 2, 0.00,60.00,Holiday
213,97024869.79039498
5925,97024869.79039498
2,2, 1, 2, 0, 3, 0.00,60.00,Holiday
213,88820534.4725259
5925,88820534.4725259
2,2, 1, 2, 0, 4, 0.00,60.00,Holiday
213,82829737.37164333
5925,82829737.37164332
2,2, 1, 2, 0, 5, 0.00,60.00,Holiday
213,99021436.94892201
5925,99021436.948922
2,2, 1, 2, 0, 6, 0.00,60.00,Holiday
213,125710723.86660463
5925,125710723.86660463
2,2, 1, 2, 0, 7, 0.00,60.00,Holiday
213,191511912.8348472
5925,191511912.8348472
2,2, 1, 2, 0, 8, 0.00,60.00,Holiday
213,195641725.3131255
5925,195641725.3131255
2,2, 1, 2, 0, 9, 0.00,60.00,Holiday
213,175220592.1787055
5925,175220592.1787055
2,2, 1, 2, 0,10, 0.00,60.00,Holiday
213,155468646.74809143
5925,155468646.7480914
2,2, 1, 2, 0,11, 0.00,60.00,Holiday
213,156577165.29962316
5925,156577165.29962316
2,2, 1, 2, 0,12, 0.00,60.00,Holiday
213,143036482.18452924
5925,143036482.18452924
2,2, 1, 2, 0,13, 0.00,60.00,Holiday
213,134752018.21657062
5925,134752018.21657062
2,2, 1, 2, 0,14, 0.00,60.00,Holiday
213,119306639.38719338
5925,119306639.38719338
2,2, 1, 2, 0,15, 0.00,60.00,Holiday
213,124265571.66178636
5925,124265571.66178639
2,2, 1, 2, 0,16, 0.00,60.00,Holiday
213,123003234.58367285
5925,123003234.58367284
2,2, 1, 2, 0,17, 0.00,60.00,Holiday
213,164178146.37857538
5925,164178146.37857544
2,2, 1, 2, 0,18, 0.00,60.00,Holiday
213,194361650.2666667
5925,194361650.26666704
2,2, 1, 2, 0,19, 0.00,60.00,Holiday
213,236036803.23264343
5925,236036803.23264372
2,2, 1, 2, 0,20, 0.00,60.00,Holiday
213,226032975.57346028
5925,226032975.57346064
2,2, 1, 2, 0,21, 0.00,60.00,Holiday
213,212598494.97888017
5925,212598494.9788805
2,2, 1, 2, 0,22, 0.00,60.00,Holiday
213,190180187.88035786
5925,190180187.88035804
2,2, 1, 2, 0,23, 0.00,60.00,Holiday
213,164365211.98056334
5925,164365211.9805633
2,2, 1, 2, 0,24, 0.00,60.00,Holiday
213,126466233.7683145
5925,126466233.7683145
2,3, 1, 3, 0, 1, 0.00,60.00,Tuesday
213,107886070.88094309
5925,107886070.88094307
2,3, 1, 3, 0, 2, 0.00,60.00,Tuesday
213,91765053.3579365
5925,91765053.3579365
2,3, 1, 3, 0, 3, 0.00,60.00,Tuesday
213,83506268.63195737
5925,83506268.63195737
2,3, 1, 3, 0, 4, 0.00,60.00,Tuesday
213,95978249.99449089
5925,95978249.99449086
2,3, 1, 3, 0, 5, 0.00,60.00,Tuesday
213,93810921.13261159
5925,93810921.13261159
2,3, 1, 3, 0, 6, 0.00,60.00,Tuesday
213,127189577.25801611
5925,127189577.25801608
2,3, 1, 3, 0, 7, 0.00,60.00,Tuesday
213,192667213.2253706
5925,192667213.2253706
2,3, 1, 3, 0, 8, 0.00,60.00,Tuesday
213,189045643.10132012
5925,189045643.1013201
2,3, 1, 3, 0, 9, 0.00,60.00,Tuesday
213,187853951.8904305
5925,187853951.8904305
2,3, 1, 3, 0,10, 0.00,60.00,Tuesday
213,166267441.6365651
5925,166267441.63656512
2,3, 1, 3, 0,11, 0.00,60.00,Tuesday
213,155496812.8042934
5925,155496812.80429336
2,3, 1, 3, 0,12, 0.00,60.00,Tuesday
213,140641105.10744298
5925,140641105.10744298
2,3, 1, 3, 0,13, 0.00,60.00,Tuesday
213,139056606.67262357
5925,139056606.67262357
2,3, 1, 3, 0,14, 0.00,60.00,Tuesday
213,124108157.49298914
5925,124108157.49298912
2,3, 1, 3, 0,15, 0.00,60.00,Tuesday
213,136752895.3004343
5925,136752895.3004343
2,3, 1, 3, 0,16, 0.00,60.00,Tuesday
213,141829665.18466264
5925,141829665.18466264
2,3, 1, 3, 0,17, 0.00,60.00,Tuesday
213,148971157.7261125
5925,148971157.7261127
2,3, 1, 3, 0,18, 0.00,60.00,Tuesday
213,209625586.43733752
5925,209625586.43733785
2,3, 1, 3, 0,19, 0.00,60.00,Tuesday
213,223308298.66187114
5925,223308298.6618715
2,3, 1, 3, 0,20, 0.00,60.00,Tuesday
213,234129596.98657504
5925,234129596.98657542
2,3, 1, 3, 0,21, 0.00,60.00,Tuesday
213,209857027.9237128
5925,209857027.92371315
2,3, 1, 3, 0,22, 0.00,60.00,Tuesday
213,193894364.7900695
5925,193894364.79006967
2,3, 1, 3, 0,23, 0.00,60.00,Tuesday
213,164695468.795031
5925,164695468.79503098
2,3, 1, 3, 0,24, 0.00,60.00,Tuesday
213,126143547.85795361
5925,126143547.8579536
2,4, 1, 4, 0, 1, 0.00,60.00,Wednesday
213,100560491.0942141
5925,100560491.09421408
2,4, 1, 4, 0, 2, 0.00,60.00,Wednesday
213,91939736.45632894
5925,91939736.45632894
2,4, 1, 4, 0, 3, 0.00,60.00,Wednesday
213,97355786.81321168
5925,97355786.81321165
2,4, 1, 4, 0, 4, 0.00,60.00,Wednesday
213,90634036.78062384
5925,90634036.78062385
2,4, 1, 4, 0, 5, 0.00,60.00,Wednesday
213,87105770.89317691
5925,87105770.89317691
2,4, 1, 4, 0, 6, 0.00,60.00,Wednesday
213,127161440.38326181
5925,127161440.38326181
2,4, 1, 4, 0, 7, 0.00,60.00,Wednesday
213,192508125.2359177
5925,192508125.2359177
2,4, 1, 4, 0, 8, 0.00,60.00,Wednesday
213,196915850.9405652
5925,196915850.94056523
2,4, 1, 4, 0, 9, 0.00,60.00,Wednesday
213,180609130.1841864
5925,180609130.1841864
2,4, 1, 4, 0,10, 0.00,60.00,Wednesday
213,174089600.97525528
5925,174089600.97525528
2,4, 1, 4, 0,11, 0.00,60.00,Wednesday
213,147392754.75098425
5925,147392754.75098425
2,4, 1, 4, 0,12, 0.00,60.00,Wednesday
213,146057495.19959727
5925,146057495.19959727
2,4, 1, 4, 0,13, 0.00,60.00,Wednesday
213,136423179.09711146
5925,136423179.0971115
2,4, 1, 4, 0,14, 0.00,60.00,Wednesday
213,134723663.0691922
5925,134723663.06919217
2,4, 1, 4, 0,15, 0.00,60.00,Wednesday
213,114364370.71760309
5925,114364370.71760309
2,4, 1, 4, 0,16, 0.00,60.00,Wednesday
213,139992630.90882632
5925,139992630.90882632
2,4, 1, 4, 0,17, 0.00,60.00,Wednesday
213,167314451.61527914
5925,167314451.61527926
2,4, 1, 4, 0,18, 0.00,60.00,Wednesday
213,194474303.25882646
5925,194474303.25882685
2,4, 1, 4, 0,19, 0.00,60.00,Wednesday
213,235351065.91939878
5925,235351065.91939914
2,4, 1, 4, 0,20, 0.00,60.00,Wednesday
213,210903888.3475897
5925,210903888.34759012
2,4, 1, 4, 0,21, 0.00,60.00,Wednesday
213,227958460.4516776
5925,227958460.45167792
2,4, 1, 4, 0,22, 0.00,60.00,Wednesday
213,187066913.84769878
5925,187066913.84769896
2,4, 1, 4, 0,23, 0.00,60.00,Wednesday
213,149894433.45342547
5925,149894433.45342547
2,4, 1, 4, 0,24, 0.00,60.00,Wednesday
213,138523745.18204787
5925,138523745.18204787
2,5, 1, 5, 0, 1, 0.00,60.00,Thursday
213,93662009.47618821
5925,93662009.47618818
2,5, 1, 5, 0, 2, 0.00,60.00,Thursday
213,103694570.80782367
5925,103694570.80782366
2,5, 1, 5, 0, 3, 0.00,60.00,Thursday
213,82583349.95404448
5925,82583349.95404449
2,5, 1, 5, 0, 4, 0.00,60.00,Thursday
213,81855644.62563622
5925,81855644.6256362
2,5, 1, 5, 0, 5, 0.00,60.00,Thursday
213,105382440.92224942
5925,105382440.92224944
2,5, 1, 5, 0, 6, 0.00,60.00,Thursday
213,125753523.80766317
5925,125753523.80766317
2,5, 1, 5, 0, 7, 0.00,60.00,Thursday
213,191826732.12913436
5925,191826732.12913433
2,5, 1, 5, 0, 8, 0.00,60.00,Thursday
213,188520674.3890251
5925,188520674.38902506
2,5, 1, 5, 0, 9, 0.00,60.00,Thursday
213,186576460.46365786
5925,186576460.46365786
2,5, 1, 5, 0,10, 0.00,60.00,Thursday
213,150018628.72576687
5925,150018628.72576687
2,5, 1, 5, 0,11, 0.00,60.00,Thursday
213,164973428.18406004
5925,164973428.18406004
2,5, 1, 5, 0,12, 0.00,60.00,Thursday
213,135627074.9491744
5925,135627074.9491744
2,5, 1, 5, 0,13, 0.00,60.00,Thursday
213,127528710.25734378
5925,127528710.2573438
2,5, 1, 5, 0,14, 0.00,60.00,Thursday
213,124019849.31129228
5925,124019849.31129226
2,5, 1, 5, 0,15, 0.00,60.00,Thursday
213,129592278.72999288
5925,129592278.72999287
2,5, 1, 5, 0,16, 0.00,60.00,Thursday
213,120924824.84474462
5925,120924824.8447446
2,5, 1, 5, 0,17, 0.00,60.00,Thursday
213,155326479.21737906
5925,155326479.21737903
2,5, 1, 5, 0,18, 0.00,60.00,Thursday
213,190791849.04759485
5925,190791849.0475952
2,5, 1, 5, 0,19, 0.00,60.00,Thursday
213,232650181.5560295
5925,232650181.5560298
2,5, 1, 5, 0,20, 0.00,60.00,Thursday
213,230136577.86619133
5925,230136577.8661917
2,5, 1, 5, 0,21, 0.00,60.00,Thursday
213,206314902.50572467
5925,206314902.505725
2,5, 1, 5, 0,22, 0.00,60.00,Thursday
213,190682174.60764864
5925,190682174.60764882
2,5, 1, 5, 0,23, 0.00,60.00,Thursday
213,161518920.43234348
5925,161518920.43234348
2,5, 1, 5, 0,24, 0.00,60.00,Thursday
213,122840789.41105053
5925,122840789.41105053
2,6, 1, 6, 0, 1, 0.00,60.00,Friday
213,97172909.24129951
5925,97172909.24129948
2,6, 1, 6, 0, 2, 0.00,60.00,Friday
213,88802603.92662884
5925,88802603.92662883
2,6, 1, 6, 0, 3, 0.00,60.00,Friday
213,87640517.34380022
5925,87640517.34380022
2,6, 1, 6, 0, 4, 0.00,60.00,Friday
213,93211610.42839631
5925,93211610.4283963
2,6, 1, 6, 0, 5, 0.00,60.00,Friday
213,89877965.62124339
5925,89877965.62124339
2,6, 1, 6, 0, 6, 0.00,60.00,Friday
213,117748827.78107779
5925,117748827.78107776
2,6, 1, 6, 0, 7, 0.00,60.00,Friday
213,195064328.3017743
5925,195064328.30177426
2,6, 1, 6, 0, 8, 0.00,60.00,Friday
213,188077670.77781954
5925,188077670.77781954
2,6, 1, 6, 0, 9, 0.00,60.00,Friday
213,176204006.87412247
5925,176204006.8741224
2,6, 1, 6, 0,10, 0.00,60.00,Friday
213,167670160.8108257
5925,167670160.81082568
2,6, 1, 6, 0,11, 0.00,60.00,Friday
213,139731156.7267274
5925,139731156.7267274
2,6, 1, 6, 0,12, 0.00,60.00,Friday
213,139019702.10286278
5925,139019702.10286278
2,6, 1, 6, 0,13, 0.00,60.00,Friday
213,131633313.35250796
5925,131633313.35250792
2,6, 1, 6, 0,14, 0.00,60.00,Friday
213,119291708.8858949
5925,119291708.88589485
2,6, 1, 6, 0,15, 0.00,60.00,Friday
213,132428406.39693308
5925,132428406.39693303
2,6, 1, 6, 0,16, 0.00,60.00,Friday
213,130955946.72641137
5925,130955946.72641137
2,6, 1, 6, 0,17, 0.00,60.00,Friday
213,145399261.41367847
5925,145399261.4136784
2,6, 1, 6, 0,18, 0.00,60.00,Friday
213,200363747.87739173
5925,200363747.87739202
2,6, 1, 6, 0,19, 0.00,60.00,Friday
213,215535454.6245897
5925,215535454.62459004
2,6, 1, 6, 0,20, 0.00,60.00,Friday
213,223205121.4815633
5925,223205121.48156363
2,6, 1, 6, 0,21, 0.00,60.00,Friday
213,207030050.80738962
5925,207030050.80738994
2,6, 1, 6, 0,22, 0.00,60.00,Friday
213,181047876.96930933
5925,181047876.9693095
2,6, 1, 6, 0,23, 0.00,60.00,Friday
213,167584974.7460992
5925,167584974.7460992
2,6, 1, 6, 0,24, 0.00,60.00,Friday
213,119013256.96913415
5925,119013256.96913412
2,7, 1, 7, 0, 1, 0.00,60.00,Saturday
213,101700282.19998237
5925,101700282.19998235
2,7, 1, 7, 0, 2, 0.00,60.00,Saturday
213,90552510.35403286
5925,90552510.35403287
2,7, 1, 7, 0, 3, 0.00,60.00,Saturday
213,95781378.38544814
5925,95781378.38544814
2,7, 1, 7, 0, 4, 0.00,60.00,Saturday
213,89234396.99743813
5925,89234396.99743813
2,7, 1, 7, 0, 5, 0.00,60.00,Saturday
213,86334396.55773751
5925,86334396.55773751
2,7, 1, 7, 0, 6, 0.00,60.00,Saturday
213,136238438.68431154
5925,136238438.68431154
2,7, 1, 7, 0, 7, 0.00,60.00,Saturday
213,182227961.1921325
5925,182227961.19213247
2,7, 1, 7, 0, 8, 0.00,60.00,Saturday
213,199800121.59805787
5925,199800121.59805787
2,7, 1, 7, 0, 9, 0.00,60.00,Saturday
213,170990391.6334846
5925,170990391.63348463
2,7, 1, 7, 0,10, 0.00,60.00,Saturday
213,166456919.78485495
5925,166456919.784855
2,7, 1, 7, 0,11, 0.00,60.00,Saturday
213,139887302.65569842
5925,139887302.65569842
2,7, 1, 7, 0,12, 0.00,60.00,Saturday
213,138741537.60973692
5925,138741537.60973692
2,7, 1, 7, 0,13, 0.00,60.00,Saturday
213,123021759.87947132
5925,123021759.8794713
2,7, 1, 7, 0,14, 0.00,60.00,Saturday
213,124735305.76759109
5925,124735305.76759109
2,7, 1, 7, 0,15, 0.00,60.00,Saturday
213,102900020.85116792
5925,102900020.85116789
2,7, 1, 7, 0,16, 0.00,60.00,Saturday
213,128448303.34614344
5925,128448303.34614345
2,7, 1, 7, 0,17, 0.00,60.00,Saturday
213,153215350.7109157
5925,153215350.71091574
2,7, 1, 7, 0,18, 0.00,60.00,Saturday
213,191778112.72626093
5925,191778112.72626123
2,7, 1, 7, 0,19, 0.00,60.00,Saturday
213,228829126.7289303
5925,228829126.72893065
2,7, 1, 7, 0,20, 0.00,60.00,Saturday
213,209448994.36109054
5925,209448994.3610909
2,7, 1, 7, 0,21, 0.00,60.00,Saturday
213,221565366.29219735
5925,221565366.29219764
2,7, 1, 7, 0,22, 0.00,60.00,Saturday
213,185851122.37080774
5925,185851122.37080792
2,7, 1, 7, 0,23, 0.00,60.00,Saturday
213,157478220.05227253
5925,157478220.05227253
2,7, 1, 7, 0,24, 0.00,60.00,Saturday
213,126524932.09144174
5925,126524932.09144175
2,8, 1, 8, 0, 1, 0.00,60.00,Sunday
213,91771088.29308875
5925,91771088.29308875
2,8, 1, 8, 0, 2, 0.00,60.00,Sunday
213,102889576.13514653
5925,102889576.13514653
2,8, 1, 8, 0, 3, 0.00,60.00,Sunday
213,82177586.22437286
5925,82177586.22437286
2,8, 1, 8, 0, 4, 0.00,60.00,Sunday
213,81915166.55585583
5925,81915166.55585581
2,8, 1, 8, 0, 5, 0.00,60.00,Sunday
213,106048508.66209331
5925,106048508.6620933
2,8, 1, 8, 0, 6, 0.00,60.00,Sunday
213,125914842.48321313
5925,125914842.48321313
2,8, 1, 8, 0, 7, 0.00,60.00,Sunday
213,191786358.30986658
5925,191786358.30986658
2,8, 1, 8, 0, 8, 0.00,60.00,Sunday
213,190912064.70864537
5925,190912064.70864537
2,8, 1, 8, 0, 9, 0.00,60.00,Sunday
213,179506009.6715015
5925,179506009.6715015
2,8, 1, 8, 0,10, 0.00,60.00,Sunday
213,155628934.26561415
5925,155628934.26561415
2,8, 1, 8, 0,11, 0.00,60.00,Sunday
213,146229828.86927858
5925,146229828.86927855
2,8, 1, 8, 0,12, 0.00,60.00,Sunday
213,131356448.79740697
5925,131356448.79740697
2,8, 1, 8, 0,13, 0.00,60.00,Sunday
213,129913444.98861676
5925,129913444.98861676
2,8, 1, 8, 0,14, 0.00,60.00,Sunday
213,112766234.50919162
5925,112766234.50919157
2,8, 1, 8, 0,15, 0.00,60.00,Sunday
213,122433740.65028057
5925,122433740.65028054
2,8, 1, 8, 0,16, 0.00,60.00,Sunday
213,119077482.52376533
5925,119077482.52376533
2,8, 1, 8, 0,17, 0.00,60.00,Sunday
213,146955336.4520446
5925,146955336.45204458
2,8, 1, 8, 0,18, 0.00,60.00,Sunday
213,200282962.57467607
5925,200282962.5746764
2,8, 1, 8, 0,19, 0.00,60.00,Sunday
213,214847810.44832146
5925,214847810.44832176
2,8, 1, 8, 0,20, 0.00,60.00,Sunday
213,226401345.86157063
5925,226401345.8615709
2,8, 1, 8, 0,21, 0.00,60.00,Sunday
213,203017870.67507115
5925,203017870.67507145
2,8, 1, 8, 0,22, 0.00,60.00,Sunday
213,187945607.52434006
5925,187945607.52434024
2,8, 1, 8, 0,23, 0.00,60.00,Sunday
213,159448241.1575813
5925,159448241.1575813
2,8, 1, 8, 0,24, 0.00,60.00,Sunday
213,121578501.98136143
5925,121578501.98136143
2,9, 1, 9, 0, 1, 0.00,60.00,Monday
213,100286477.65024778
5925,100286477.65024774
2,9, 1, 9, 0, 2, 0.00,60.00,Monday
213,85745478.11638336
5925,85745478.11638337
2,9, 1, 9, 0, 3, 0.00,60.00,Monday
213,98174083.21663763
5925,98174083.21663763
2,9, 1, 9, 0, 4, 0.00,60.00,Monday
213,84501346.6083036
5925,84501346.6083036
2,9, 1, 9, 0, 5, 0.00,60.00,Monday
213,92715834.44584268
5925,92715834.44584265
2,9, 1, 9, 0, 6, 0.00,60.00,Monday
213,122552799.90168779
5925,122552799.90168777
2,9, 1, 9, 0, 7, 0.00,60.00,Monday
213,196192428.40769303
5925,196192428.407693
2,9, 1, 9, 0, 8, 0.00,60.00,Monday
213,189541314.06107414
5925,189541314.06107408
2,9, 1, 9, 0, 9, 0.00,60.00,Monday
213,182716155.09024036
5925,182716155.09024045
2,9, 1, 9, 0,10, 0.00,60.00,Monday
213,165936187.02403176
5925,165936187.02403176
2,9, 1, 9, 0,11, 0.00,60.00,Monday
213,147996366.27467704
5925,147996366.27467704
2,9, 1, 9, 0,12, 0.00,60.00,Monday
213,131946094.30247897
5925,131946094.30247895
2,9, 1, 9, 0,13, 0.00,60.00,Monday
213,137730619.53535524
5925,137730619.53535524
2,9, 1, 9, 0,14, 0.00,60.00,Monday
213,130167492.4460794
5925,130167492.4460794
2,9, 1, 9, 0,15, 0.00,60.00,Monday
213,123505541.41102503
5925,123505541.41102505
2,9, 1, 9, 0,16, 0.00,60.00,Monday
213,141127421.29088527
5925,141127421.29088524
2,9, 1, 9, 0,17, 0.00,60.00,Monday
213,152330999.74929547
5925,152330999.74929547
2,9, 1, 9, 0,18, 0.00,60.00,Monday
213,191256531.43256065
5925,191256531.43256098
2,9, 1, 9, 0,19, 0.00,60.00,Monday
213,222583876.05171955
5925,222583876.05171984
2,9, 1, 9, 0,20, 0.00,60.00,Monday
213,216097161.31395167
5925,216097161.31395194
2,9, 1, 9, 0,21, 0.00,60.00,Monday
213,212603216.62345254
5925,212603216.6234529
2,9, 1, 9, 0,22, 0.00,60.00,Monday
213,186404173.70285323
5925,186404173.7028534
2,9, 1, 9, 0,23, 0.00,60.00,Monday
213,156976724.74609035
5925,156976724.74609038
2,9, 1, 9, 0,24, 0.00,60.00,Monday
213,124313689.26328607
5925,124313689.26328607
2,10, 1,10, 0, 1, 0.00,60.00,Tuesday
213,91494055.22630975
5925,91494055.22630973
2,10, 1,10, 0, 2, 0.00,60.00,Tuesday
213,95388915.91406807
5925,95388915.91406806
2,10, 1,10, 0, 3, 0.00,60.00,Tuesday
213,88305400.91375524
5925,88305400.91375525
2,10, 1,10, 0, 4, 0.00,60.00,Tuesday
213,84531601.23034544
5925,84531601.23034543
2,10, 1,10, 0, 5, 0.00,60.00,Tuesday
213,98343639.88828503
5925,98343639.88828504
2,10, 1,10, 0, 6, 0.00,60.00,Tuesday
213,127566435.19546898
5925,127566435.19546896
2,10, 1,10, 0, 7, 0.00,60.00,Tuesday
213,189782277.60802934
5925,189782277.6080293
2,10, 1,10, 0, 8, 0.00,60.00,Tuesday
213,192891177.9528052
5925,192891177.95280522
2,10, 1,10, 0, 9, 0.00,60.00,Tuesday
213,182690311.69842255
5925,182690311.69842255
2,10, 1,10, 0,10, 0.00,60.00,Tuesday
213,160134920.74863482
5925,160134920.7486348
2,10, 1,10, 0,11, 0.00,60.00,Tuesday
213,150056925.20835623
5925,150056925.20835623
2,10, 1,10, 0,12, 0.00,60.00,Tuesday
213,135272942.1405166
5925,135272942.14051664
2,10, 1,10, 0,13, 0.00,60.00,Tuesday
213,137840185.94791326
5925,137840185.94791326
2,10, 1,10, 0,14, 0.00,60.00,Tuesday
213,121038219.3902008
5925,121038219.3902008
2,10, 1,10, 0,15, 0.00,60.00,Tuesday
213,131812889.81314033
5925,131812889.8131403
2,10, 1,10, 0,16, 0.00,60.00,Tuesday
213,134300566.86594278
5925,134300566.86594275
2,10, 1,10, 0,17, 0.00,60.00,Tuesday
213,159350389.6518885
5925,159350389.6518885
2,10, 1,10, 0,18, 0.00,60.00,Tuesday
213,192884476.995787
5925,192884476.99578735
2,10, 1,10, 0,19, 0.00,60.00,Tuesday
213,219165199.91628993
5925,219165199.91629028
2,10, 1,10, 0,20, 0.00,60.00,Tuesday
213,216692430.94972742
5925,216692430.9497277
2,10, 1,10, 0,21, 0.00,60.00,Tuesday
213,208087538.75642
5925,208087538.7564203
2,10, 1,10, 0,22, 0.00,60.00,Tuesday
213,181943867.9185566
5925,181943867.91855675
2,10, 1,10, 0,23, 0.00,60.00,Tuesday
213,156274027.98656052
5925,156274027.98656052
2,10, 1,10, 0,24, 0.00,60.00,Tuesday
213,118175251.74625961
5925,118175251.74625957
2,11, 1,11, 0, 1, 0.00,60.00,Wednesday
213,95867790.56693536
5925,95867790.56693536
2,11, 1,11, 0, 2, 0.00,60.00,Wednesday
213,83845606.3360952
5925,83845606.3360952
2,11, 1,11, 0, 3, 0.00,60.00,Wednesday
213,86600633.92302608
5925,86600633.92302608
2,11, 1,11, 0, 4, 0.00,60.00,Wednesday
213,78386075.59270509
5925,78386075.59270509
2,11, 1,11, 0, 5, 0.00,60.00,Wednesday
213,89865327.85161626
5925,89865327.85161626
2,11, 1,11, 0, 6, 0.00,60.00,Wednesday
213,121220418.30618915
5925,121220418.30618912
2,11, 1,11, 0, 7, 0.00,60.00,Wednesday
213,184165504.64857972
5925,184165504.64857975
2,11, 1,11, 0, 8, 0.00,60.00,Wednesday
213,186886317.3626631
5925,186886317.36266306
2,11, 1,11, 0, 9, 0.00,60.00,Wednesday
213,176053892.52569446
5925,176053892.52569446
2,11, 1,11, 0,10, 0.00,60.00,Wednesday
213,160307835.1998277
5925,160307835.1998277
2,11, 1,11, 0,11, 0.00,60.00,Wednesday
213,149767943.31264946
5925,149767943.31264943
2,11, 1,11, 0,12, 0.00,60.00,Wednesday
213,139200517.33403268
5925,139200517.33403265
2,11, 1,11, 0,13, 0.00,60.00,Wednesday
213,131747183.64480388
5925,131747183.64480388
2,11, 1,11, 0,14, 0.00,60.00,Wednesday
213,123953063.03904721
5925,123953063.03904721
2,11, 1,11, 0,15, 0.00,60.00,Wednesday
213,117502108.5975303
5925,117502108.5975303
2,11, 1,11, 0,16, 0.00,60.00,Wednesday
213,133129167.79676795
5925,133129167.79676795
2,11, 1,11, 0,17, 0.00,60.00,Wednesday
213,160788117.75989795
5925,160788117.75989798
2,11, 1,11, 0,18, 0.00,60.00,Wednesday
213,195033364.976064
5925,195033364.97606432
2,11, 1,11, 0,19, 0.00,60.00,Wednesday
213,229184688.1248703
5925,229184688.12487066
2,11, 1,11, 0,20, 0.00,60.00,Wednesday
213,219822023.52353603
5925,219822023.52353638
2,11, 1,11, 0,21, 0.00,60.00,Wednesday
213,215875799.7759844
5925,215875799.7759847
2,11, 1,11, 0,22, 0.00,60.00,Wednesday
213,186532662.76852623
5925,186532662.76852643
2,11, 1,11, 0,23, 0.00,60.00,Wednesday
213,158715278.57848033
5925,158715278.57848033
2,11, 1,11, 0,24, 0.00,60.00,Wednesday
213,126121682.66849133
5925,126121682.6684913
2,12, 1,12, 0, 1, 0.00,60.00,Thursday
213,95627194.56203224
5925,95627194.56203224
2,12, 1,12, 0, 2, 0.00,60.00,Thursday
213,95899044.39693573
5925,95899044.39693575
2,12, 1,12, 0, 3, 0.00,60.00,Thursday
213,88650814.8219333
5925,88650814.8219333
2,12, 1,12, 0, 4, 0.00,60.00,Thursday
213,86387869.81277926
5925,86387869.81277925
2,12, 1,12, 0, 5, 0.00,60.00,Thursday
213,96107453.85817951
5925,96107453.85817951
2,12, 1,12, 0, 6, 0.00,60.00,Thursday
213,123195735.29935974
5925,123195735.29935971
2,12, 1,12, 0, 7, 0.00,60.00,Thursday
213,193408001.977259
5925,193408001.97725898
2,12, 1,12, 0, 8, 0.00,60.00,Thursday
213,191474432.0417921
5925,191474432.04179212
2,12, 1,12, 0, 9, 0.00,60.00,Thursday
213,182538774.06858838
5925,182538774.06858838
2,12, 1,12, 0,10, 0.00,60.00,Thursday
213,165678430.91638225
5925,165678430.91638225
2,12, 1,12, 0,11, 0.00,60.00,Thursday
213,151869812.8471268
5925,151869812.84712678
2,12, 1,12, 0,12, 0.00,60.00,Thursday
213,141365034.2229406
5925,141365034.22294062
2,12, 1,12, 0,13, 0.00,60.00,Thursday
213,138601605.5392132
5925,138601605.5392132
2,12, 1,12, 0,14, 0.00,60.00,Thursday
213,124116090.75048445
5925,124116090.75048444
2,12, 1,12, 0,15, 0.00,60.00,Thursday
213,122915846.73380253
5925,122915846.73380251
2,12, 1,12, 0,16, 0.00,60.00,Thursday
213,135736076.1695228
5925,135736076.16952276
2,12, 1,12, 0,17, 0.00,60.00,Thursday
213,159921789.88355854
5925,159921789.88355863
2,12, 1,12, 0,18, 0.00,60.00,Thursday
213,200752784.30071574
5925,200752784.3007161
2,12, 1,12, 0,19, 0.00,60.00,Thursday
213,228302000.8288464
5925,228302000.82884675
2,12, 1,12, 0,20, 0.00,60.00,Thursday
213,220726640.2077642
5925,220726640.20776454
2,12, 1,12, 0,21, 0.00,60.00,Thursday
213,217919077.5601462
5925,217919077.56014657
2,12, 1,12, 0,22, 0.00,60.00,Thursday
213,188635603.9264857
5925,188635603.92648584
2,12, 1,12, 0,23, 0.00,60.00,Thursday
213,160347918.45132732
5925,160347918.45132732
2,12, 1,12, 0,24, 0.00,60.00,Thursday
213,125282846.10394374
5925,125282846.10394372
2,13, 1,13, 0, 1, 0.00,60.00,Friday
213,100143851.83925955
5925,100143851.83925954
2,13, 1,13, 0, 2, 0.00,60.00,Friday
213,90672012.91541953
5925,90672012.91541953
2,13, 1,13, 0, 3, 0.00,60.00,Friday
213,95251737.21541347
5925,95251737.21541348
2,13, 1,13, 0, 4, 0.00,60.00,Friday
213,88658509.89063475
5925,88658509.89063476
2,13, 1,13, 0, 5, 0.00,60.00,Friday
213,96923045.2956708
5925,96923045.2956708
2,13, 1,13, 0, 6, 0.00,60.00,Friday
213,126026981.63235241
5925,126026981.63235238
2,13, 1,13, 0, 7, 0.00,60.00,Friday
213,191611686.33331746
5925,191611686.33331746
2,13, 1,13, 0, 8, 0.00,60.00,Friday
213,192717098.02496466
5925,192717098.02496463
2,13, 1,13, 0, 9, 0.00,60.00,Friday
213,182261236.48093364
5925,182261236.48093364
2,13, 1,13, 0,10, 0.00,60.00,Friday
213,162406218.02422723
5925,162406218.02422723
2,13, 1,13, 0,11, 0.00,60.00,Friday
213,156528993.77007535
5925,156528993.77007535
2,13, 1,13, 0,12, 0.00,60.00,Friday
213,141364176.37739998
5925,141364176.37739998
2,13, 1,13, 0,13, 0.00,60.00,Friday
213,135658466.81516743
5925,135658466.81516746
2,13, 1,13, 0,14, 0.00,60.00,Friday
213,128074030.48516965
5925,128074030.48516966
2,13, 1,13, 0,15, 0.00,60.00,Friday
213,122838168.88789637
5925,122838168.88789637
2,13, 1,13, 0,16, 0.00,60.00,Friday
213,132624405.73649573
5925,132624405.73649573
2,13, 1,13, 0,17, 0.00,60.00,Friday
213,159813349.5092121
5925,159813349.50921226
2,13, 1,13, 0,18, 0.00,60.00,Friday
213,200775045.68528366
5925,200775045.68528402
2,13, 1,13, 0,19, 0.00,60.00,Friday
213,229355314.11436093
5925,229355314.11436132
2,13, 1,13, 0,20, 0.00,60.00,Friday
213,223341600.25696623
5925,223341600.25696656
2,13, 1,13, 0,21, 0.00,60.00,Friday
213,215983730.6572341
5925,215983730.65723443
2,13, 1,13, 0,22, 0.00,60.00,Friday
213,190015832.9754306
5925,190015832.9754308
2,13, 1,13, 0,23, 0.00,60.00,Friday
213,164495709.88431036
5925,164495709.88431033
2,13, 1,13, 0,24, 0.00,60.00,Friday
213,124616838.74729921
5925,124616838.74729918
2,14, 1,14, 0, 1, 0.00,60.00,Saturday
213,100410194.00100313
5925,100410194.00100312
2,14, 1,14, 0, 2, 0.00,60.00,Saturday
213,92923405.54470725
5925,92923405.54470727
2,14, 1,14, 0, 3, 0.00,60.00,Saturday
213,87751441.36078836
5925,87751441.36078838
2,14, 1,14, 0, 4, 0.00,60.00,Saturday
213,93219106.28544989
5925,93219106.28544989
2,14, 1,14, 0, 5, 0.00,60.00,Saturday
213,95833673.43506339
5925,95833673.43506339
2,14, 1,14, 0, 6, 0.00,60.00,Saturday
213,126407659.85084867
5925,126407659.85084864
2,14, 1,14, 0, 7, 0.00,60.00,Saturday
213,191845395.1369091
5925,191845395.13690907
2,14, 1,14, 0, 8, 0.00,60.00,Saturday
213,193038599.23602894
5925,193038599.2360289
2,14, 1,14, 0, 9, 0.00,60.00,Saturday
213,177958951.4452563
5925,177958951.44525626
2,14, 1,14, 0,10, 0.00,60.00,Saturday
213,164091523.68629998
5925,164091523.68629998
2,14, 1,14, 0,11, 0.00,60.00,Saturday
213,145995000.61569962
5925,145995000.61569962
2,14, 1,14, 0,12, 0.00,60.00,Saturday
213,141170082.72008693
5925,141170082.72008693
2,14, 1,14, 0,13, 0.00,60.00,Saturday
213,132835242.74418631
5925,132835242.7441863
2,14, 1,14, 0,14, 0.00,60.00,Saturday
213,125770707.23291771
5925,125770707.23291773
2,14, 1,14, 0,15, 0.00,60.00,Saturday
213,120040375.28327703
5925,120040375.28327702
2,14, 1,14, 0,16, 0.00,60.00,Saturday
213,129902061.11705999
5925,129902061.11706002
2,14, 1,14, 0,17, 0.00,60.00,Saturday
213,158551806.707177
5925,158551806.70717704
2,14, 1,14, 0,18, 0.00,60.00,Saturday
213,198907287.808964
5925,198907287.80896437
2,14, 1,14, 0,19, 0.00,60.00,Saturday
213,232128960.43937796
5925,232128960.43937835
2,14, 1,14, 0,20, 0.00,60.00,Saturday
213,222104308.3861003
5925,222104308.3861006
2,14, 1,14, 0,21, 0.00,60.00,Saturday
213,218976690.8060335
5925,218976690.8060338
2,14, 1,14, 0,22, 0.00,60.00,Saturday
213,189959585.3509652
5925,189959585.35096535
2,14, 1,14, 0,23, 0.00,60.00,Saturday
213,162218050.6420343
5925,162218050.6420343
2,14, 1,14, 0,24, 0.00,60.00,Saturday
213,125679401.49396488
5925,125679401.49396484
2,15, 1,15, 0, 1, 0.00,60.00,Sunday
213,95757600.05877605
5925,95757600.05877604
2,15, 1,15, 0, 2, 0.00,60.00,Sunday
213,97542404.690908
5925,97542404.690908
2,15, 1,15, 0, 3, 0.00,60.00,Sunday
213,85486976.57959664
5925,85486976.57959664
2,15, 1,15, 0, 4, 0.00,60.00,Sunday
213,90718980.18305331
5925,90718980.18305331
2,15, 1,15, 0, 5, 0.00,60.00,Sunday
213,97246565.28354594
5925,97246565.28354593
2,15, 1,15, 0, 6, 0.00,60.00,Sunday
213,125252816.86375383
5925,125252816.86375381
2,15, 1,15, 0, 7, 0.00,60.00,Sunday
213,190970567.70302767
5925,190970567.70302767
2,15, 1,15, 0, 8, 0.00,60.00,Sunday
213,195298127.22102308
5925,195298127.22102314
2,15, 1,15, 0, 9, 0.00,60.00,Sunday
213,176287198.99440396
5925,176287198.99440396
2,15, 1,15, 0,10, 0.00,60.00,Sunday
213,164427711.8523079
5925,164427711.8523079
2,15, 1,15, 0,11, 0.00,60.00,Sunday
213,148400723.06245568
5925,148400723.06245568
2,15, 1,15, 0,12, 0.00,60.00,Sunday
213,142578645.79834163
5925,142578645.79834163
2,15, 1,15, 0,13, 0.00,60.00,Sunday
213,132718461.56485878
5925,132718461.56485876
2,15, 1,15, 0,14, 0.00,60.00,Sunday
213,123746456.4235774
5925,123746456.42357737
2,15, 1,15, 0,15, 0.00,60.00,Sunday
213,125406820.07897541
5925,125406820.0789754
2,15, 1,15, 0,16, 0.00,60.00,Sunday
213,131941022.64938587
5925,131941022.64938584
2,15, 1,15, 0,17, 0.00,60.00,Sunday
213,155068616.90474442
5925,155068616.90474448
2,15, 1,15, 0,18, 0.00,60.00,Sunday
213,199326382.42978936